/*--------------------------------*- C++ -*----------------------------------*\
| =========                 |                                                 |
| \\      /  F ield         | OpenFOAM: The Open Source CFD Toolbox           |
|  \\    /   O peration     | Version:  2112                                  |
|   \\  /    A nd           | Website:  www.openfoam.com                      |
|    \\/     M anipulation  |                                                 |
\*---------------------------------------------------------------------------*/
FoamFile
{
    version     2.0;
    format      ascii;
    arch        "LSB;label=32;scalar=64";
    class       volScalarField;
    location    "0.00785";
    object      nut;
}
// * * * * * * * * * * * * * * * * * * * * * * * * * * * * * * * * * * * * * //

dimensions      [0 2 -1 0 0 0 0];

internalField   nonuniform List<scalar> 
13875
(
0.0511675
0.0366251
0.0343663
0.034329
0.0342995
0.0343356
0.0342984
0.0342888
0.0342954
0.0342847
0.0342851
0.034297
0.0343257
0.0343421
0.0343305
0.034293
0.0342674
0.0342898
0.0343025
0.0343265
0.0343039
0.0343343
0.0343826
0.0365727
0.0514255
0.0532618
0.0341194
0.0322226
0.032106
0.0320639
0.0320849
0.0320473
0.0320433
0.0320461
0.0320235
0.0320207
0.0320494
0.0320563
0.0320728
0.0320605
0.0320468
0.0320034
0.0320346
0.0320461
0.0320758
0.0320637
0.0321024
0.0322288
0.0340545
0.0536365
0.0564568
0.0335611
0.031803
0.0315919
0.0315716
0.031581
0.0314869
0.0314649
0.0314608
0.0314377
0.0314261
0.0314623
0.0315316
0.031556
0.0315348
0.0314645
0.0314079
0.0314452
0.0314781
0.0315675
0.0315644
0.0315802
0.0317948
0.0334926
0.0565963
0.0590702
0.0332322
0.0314896
0.0312754
0.0312642
0.0312661
0.0311582
0.0311223
0.0311147
0.0311005
0.0310886
0.0311127
0.0312142
0.0312399
0.0312184
0.0311167
0.0310727
0.0311025
0.0311466
0.0312538
0.0312552
0.0312625
0.031485
0.0331671
0.0591463
0.0611253
0.0330035
0.0312464
0.0310011
0.0309872
0.0309834
0.0308694
0.0308298
0.0308258
0.0308151
0.0308019
0.0308222
0.030925
0.0309544
0.0309299
0.0308271
0.0307863
0.0308148
0.0308595
0.0309686
0.0309766
0.0309898
0.0312301
0.0329183
0.0612625
0.0628179
0.0328477
0.0310895
0.0307694
0.0307555
0.030735
0.0306074
0.0305636
0.0305631
0.0305556
0.03054
0.0305568
0.030662
0.0306945
0.0306678
0.0305624
0.0305259
0.0305534
0.0305999
0.0307198
0.0307436
0.0307612
0.0310586
0.0328227
0.062978
0.0648262
0.0330727
0.0311043
0.0306307
0.0305719
0.0305289
0.0303784
0.0303256
0.0303267
0.0303221
0.0303041
0.0303173
0.0304254
0.0304583
0.0304286
0.0303218
0.0302929
0.0303205
0.0303762
0.0305121
0.03056
0.0306331
0.031113
0.0330708
0.0648708
0.0670925
0.0339361
0.0314254
0.030649
0.0304886
0.030378
0.030193
0.0301226
0.0301209
0.030117
0.0300971
0.0301031
0.0302155
0.0302514
0.0302189
0.0301077
0.030089
0.0301206
0.0301899
0.0303572
0.0304672
0.0306294
0.0313921
0.0338956
0.0673605
0.0736445
0.0362959
0.0320411
0.0308442
0.0304779
0.0302857
0.030049
0.0299575
0.0299535
0.0299494
0.0299277
0.0299263
0.0300432
0.0300825
0.0300492
0.0299345
0.0299227
0.0299581
0.0300444
0.0302597
0.0304503
0.0308019
0.031935
0.0359987
0.0741883
0.0828997
0.0384712
0.0327362
0.0311896
0.0305845
0.0302444
0.0299726
0.029874
0.02986
0.0298503
0.0298288
0.029823
0.0299385
0.0299813
0.0299498
0.029846
0.0298323
0.0298728
0.0299658
0.0302203
0.0305501
0.03108
0.0326221
0.038103
0.0835408
0.0907177
0.0441369
0.0346498
0.0319975
0.0308218
0.0303548
0.0300374
0.0299081
0.0298732
0.0298521
0.0298277
0.0298191
0.0299274
0.0299725
0.0299508
0.0298721
0.0298558
0.0299031
0.030035
0.0303057
0.0307946
0.0318805
0.0343608
0.0432597
0.089341
0.0950536
0.0545204
0.0403658
0.0334472
0.031873
0.0308316
0.0303278
0.0301374
0.0300631
0.0300257
0.029996
0.0299893
0.0300806
0.0301271
0.0301208
0.0300731
0.0300641
0.0301366
0.0303196
0.0308349
0.0317963
0.0332221
0.0398396
0.0533551
0.0942526
0.0865941
0.0688296
0.051534
0.0417484
0.0343737
0.0319244
0.0312838
0.0308282
0.0306435
0.0305553
0.0305059
0.0304953
0.030565
0.0306095
0.0306253
0.0306237
0.0306772
0.0308696
0.0313295
0.0320101
0.0347611
0.0415636
0.0509127
0.068774
0.086598
0.0795859
0.0659721
0.0581114
0.0656973
0.0416811
0.0372292
0.0336715
0.0324354
0.0320413
0.0319779
0.0319366
0.0319283
0.0319913
0.032033
0.0320607
0.0320909
0.0321433
0.0325323
0.0340637
0.0382273
0.0431556
0.0656727
0.0578234
0.0661746
0.0816052
0.0753085
0.0642879
0.05656
0.0606425
0.0560769
0.054093
0.0444569
0.038817
0.0367429
0.0358973
0.0355098
0.0353863
0.0354092
0.0354638
0.0355717
0.0358667
0.0366608
0.0388885
0.0451044
0.0550376
0.0557858
0.0612322
0.0565969
0.0641611
0.0746592
0.0671485
0.061832
0.0542894
0.0572882
0.0559938
0.0572269
0.0545555
0.053048
0.050813
0.0483721
0.0474797
0.0471406
0.0470553
0.0471317
0.0472905
0.0477758
0.0503624
0.0542969
0.0553745
0.057709
0.0556282
0.0579895
0.0543056
0.0615002
0.0664757
0.0624003
0.0582096
0.052495
0.0550942
0.0568594
0.0612707
0.0681613
0.0730612
0.0701205
0.0707281
0.0729782
0.0744868
0.0752626
0.0749454
0.0734094
0.072597
0.0699413
0.0728619
0.0688034
0.0614247
0.0564276
0.0553246
0.0520021
0.0576046
0.0624479
0.0569999
0.0546769
0.0530707
0.0569081
0.0600336
0.0630474
0.0709846
0.0793729
0.074291
0.0702111
0.0691579
0.0693485
0.0698984
0.069615
0.0697144
0.0725058
0.073721
0.0769271
0.0711414
0.0642285
0.0609631
0.0577172
0.0528816
0.0542829
0.0567962
0.0513168
0.054054
0.055755
0.0618725
0.0669902
0.0647093
0.0673907
0.0753835
0.0743047
0.0703095
0.0685837
0.0683096
0.0684302
0.0688887
0.0697083
0.0715274
0.0727222
0.0733808
0.0678573
0.0663234
0.0696527
0.0634094
0.0563523
0.0543842
0.0521205
0.0492361
0.057057
0.0602297
0.0660299
0.0687983
0.0643934
0.0638972
0.0696961
0.0718747
0.0703232
0.0685795
0.067143
0.0664674
0.0679598
0.0698413
0.0707943
0.0699097
0.0680397
0.0645333
0.0661795
0.0706607
0.066766
0.0609491
0.0575232
0.0487348
0.0771197
0.0870714
0.0763406
0.0653062
0.0650291
0.0614607
0.0607008
0.0657141
0.0694146
0.0693232
0.0674914
0.0651472
0.0640219
0.0662545
0.0688388
0.0693581
0.0672854
0.0643099
0.0614329
0.0631942
0.0666892
0.0668521
0.078782
0.0902007
0.0813281
0.128189
0.153084
0.0877048
0.0618114
0.0608815
0.0584677
0.0580638
0.0627183
0.0669993
0.067676
0.0657223
0.0627556
0.0613599
0.0639771
0.0670496
0.0674598
0.0648495
0.061586
0.058716
0.0599865
0.0622548
0.0634926
0.0909227
0.157857
0.133585
0.149177
0.131405
0.0817342
0.0589285
0.0575114
0.0559148
0.0557029
0.0602707
0.0646991
0.065636
0.0635352
0.0602523
0.0586533
0.0613943
0.0648171
0.0653795
0.0625611
0.0593034
0.0562651
0.0571288
0.0586032
0.0603097
0.0820285
0.134223
0.150417
0.156855
0.132058
0.0746894
0.0567714
0.0547026
0.0535922
0.0536575
0.0580364
0.0624686
0.0634362
0.0611147
0.0576508
0.0560769
0.0588583
0.0624938
0.0632829
0.0603353
0.0570476
0.0541921
0.0547177
0.0558037
0.0582224
0.0759421
0.13958
0.157294
0.161882
0.133507
0.0709693
0.0552539
0.0526287
0.0516261
0.0519996
0.0560624
0.0602745
0.0611593
0.0587672
0.0552408
0.0536914
0.056446
0.0602102
0.0611125
0.0582558
0.0550403
0.0524118
0.0526422
0.0537437
0.0567228
0.0728813
0.143185
0.163297
0.168453
0.137944
0.0685972
0.0537943
0.0510068
0.0499648
0.050657
0.0543365
0.0581909
0.0589309
0.0565409
0.0530286
0.0514984
0.0541553
0.0578909
0.0589054
0.0563284
0.0532693
0.0508445
0.0507809
0.0520534
0.0550881
0.0702737
0.146463
0.172163
0.177199
0.13598
0.0657904
0.0524404
0.0497491
0.0486208
0.0495261
0.0528099
0.0561534
0.0566371
0.0543057
0.0509644
0.0495155
0.0521261
0.0557932
0.0568402
0.0545658
0.0517277
0.0494944
0.0492814
0.0508065
0.053811
0.0680522
0.146184
0.178676
0.18285
0.136726
0.064264
0.0513975
0.0487861
0.0475755
0.0485358
0.0514385
0.0543068
0.0545685
0.0523179
0.0491205
0.0477092
0.050211
0.0537309
0.054843
0.0529468
0.0503792
0.04836
0.0480938
0.0497233
0.0526272
0.0665194
0.147707
0.185877
0.18795
0.139369
0.0633932
0.0505566
0.0480228
0.046841
0.0476761
0.0501858
0.0525887
0.052652
0.0505122
0.0474629
0.0460782
0.0484399
0.0517588
0.0529057
0.0514166
0.0491703
0.0473735
0.0471509
0.0487685
0.0516155
0.0649594
0.14496
0.193088
0.1949
0.137225
0.0626129
0.0499062
0.0472714
0.0462647
0.0470161
0.0490676
0.0509447
0.0507583
0.0487195
0.0458972
0.0445963
0.0469085
0.0500912
0.0512277
0.0500335
0.0480872
0.0465604
0.0464145
0.0479139
0.05093
0.0644367
0.144784
0.197229
0.197339
0.133959
0.0621517
0.0495335
0.0466366
0.0457108
0.046396
0.0480356
0.0494701
0.0491145
0.0471893
0.0445238
0.0432634
0.0454533
0.0484499
0.0495884
0.048742
0.0471422
0.0458996
0.0457526
0.0470806
0.0503978
0.0635739
0.140422
0.202704
0.199793
0.133971
0.0621943
0.0494429
0.0460415
0.045155
0.045817
0.0471256
0.0481783
0.047663
0.0458116
0.0432808
0.0420561
0.0441202
0.0469708
0.04814
0.0475733
0.046292
0.0452804
0.0450962
0.0463462
0.0501151
0.0631294
0.13799
0.205371
0.203901
0.129912
0.0619244
0.0495553
0.0455876
0.0446929
0.0452347
0.0462563
0.0469044
0.0462464
0.0444901
0.0421222
0.0409727
0.0429703
0.0456906
0.0468381
0.0465032
0.0455144
0.0446562
0.0445348
0.0457932
0.0501022
0.0630721
0.136783
0.207379
0.205112
0.127789
0.0617318
0.0498745
0.0453308
0.0442711
0.0446084
0.0454568
0.0457973
0.04503
0.0433414
0.0410902
0.0399835
0.0418652
0.0444648
0.0456345
0.0455095
0.0448024
0.0440388
0.0440343
0.0454036
0.0502067
0.0628342
0.132419
0.210272
0.206268
0.127535
0.0614294
0.0502862
0.0454138
0.0438818
0.044031
0.0446842
0.0447708
0.0439128
0.0423038
0.0401546
0.0390977
0.0408758
0.0433438
0.0445175
0.0445773
0.0440844
0.0434596
0.0436034
0.0453403
0.0505043
0.0623745
0.130058
0.211214
0.20845
0.125942
0.0610394
0.0507196
0.0456942
0.043584
0.0434801
0.043897
0.0438118
0.0428742
0.0413043
0.0392755
0.0382818
0.0399941
0.0423885
0.0435581
0.0437276
0.0433642
0.0429299
0.043249
0.0455206
0.0509231
0.0621813
0.130469
0.212147
0.208901
0.126305
0.0608391
0.0516313
0.0462077
0.0434243
0.043009
0.0431642
0.0429013
0.0419451
0.0404395
0.0384998
0.0375482
0.03916
0.0414496
0.0426186
0.042895
0.0426898
0.0424686
0.04302
0.0458922
0.0515793
0.0617807
0.130307
0.213488
0.209014
0.128628
0.0606398
0.0523816
0.04692
0.043486
0.0425532
0.0424786
0.0420768
0.0411141
0.0396503
0.0377854
0.0368743
0.038396
0.0406099
0.0417701
0.0421093
0.0420654
0.0420199
0.0430185
0.0464779
0.0523525
0.0614046
0.132076
0.213377
0.209544
0.128577
0.0600437
0.0524915
0.0478549
0.0437811
0.0422298
0.0418544
0.0412708
0.0402952
0.03889
0.0371207
0.0362669
0.0377338
0.0398637
0.0409901
0.0413937
0.0415079
0.0416746
0.0432031
0.0473352
0.0527653
0.0610485
0.134645
0.213198
0.208885
0.130412
0.0594956
0.0524657
0.0491443
0.0442723
0.042065
0.0413219
0.0405841
0.0395898
0.0382184
0.0365145
0.0357012
0.0370861
0.0391467
0.0402601
0.0407307
0.0410412
0.0415159
0.0436046
0.0482355
0.0526347
0.0605052
0.134854
0.213396
0.208572
0.132823
0.0592362
0.0523006
0.050431
0.0450597
0.0421048
0.0409483
0.0399753
0.0389357
0.0375988
0.0359569
0.0351864
0.0364998
0.0384748
0.039584
0.0401497
0.0406921
0.0415769
0.0442068
0.0497818
0.052504
0.0600945
0.136508
0.212463
0.208865
0.134508
0.0589111
0.0518157
0.050847
0.0459856
0.0422914
0.0407686
0.0394787
0.0383373
0.0370044
0.035427
0.0347024
0.0359682
0.0379033
0.0390075
0.0396909
0.0405198
0.0417607
0.0451229
0.050853
0.0522941
0.0605307
0.139402
0.211961
0.208285
0.136681
0.0588284
0.0512452
0.0507716
0.0475541
0.0427286
0.0407477
0.0391415
0.0378349
0.036485
0.0349525
0.0342596
0.0354577
0.0373336
0.0384703
0.0393375
0.0405347
0.0421327
0.0463146
0.0509053
0.0517295
0.0605374
0.142091
0.211628
0.207887
0.138959
0.0597127
0.0507422
0.0503703
0.0490271
0.0435279
0.0408374
0.0389955
0.0374516
0.0360343
0.0345157
0.0338433
0.034987
0.0368352
0.0380421
0.0391483
0.0406586
0.0429015
0.0482673
0.0506036
0.0511998
0.0612738
0.144742
0.210941
0.207744
0.140929
0.0596777
0.0502027
0.0497216
0.0495098
0.0448371
0.0411306
0.0389309
0.03719
0.0356518
0.0341227
0.0334724
0.0345859
0.0364415
0.0377636
0.0390942
0.0409642
0.0443667
0.0494728
0.0501098
0.0509655
0.0630087
0.146604
0.210286
0.20693
0.142739
0.06069
0.0498918
0.0489997
0.0491802
0.0470142
0.0419113
0.0390224
0.0371217
0.0354393
0.0338286
0.0331619
0.0342591
0.0361834
0.0376497
0.0391467
0.0416284
0.0464973
0.0492775
0.0494726
0.050653
0.0636092
0.148081
0.210024
0.205958
0.144593
0.0620559
0.0498013
0.0484093
0.0486865
0.0482502
0.0436363
0.0393031
0.0370929
0.0353541
0.0336757
0.0329209
0.0340761
0.036064
0.0376139
0.0393581
0.0432286
0.0479904
0.0488282
0.0488689
0.0504464
0.0641216
0.149745
0.209277
0.204073
0.145606
0.0626515
0.0496922
0.0479444
0.048098
0.0479368
0.0460288
0.0402014
0.0371563
0.0353239
0.0336218
0.0328043
0.0340138
0.0360365
0.0376823
0.040196
0.0456515
0.047904
0.0481852
0.048375
0.0504431
0.0654177
0.151428
0.207189
0.200775
0.145551
0.0635122
0.0497574
0.0475986
0.0474376
0.04748
0.0474672
0.0421604
0.0375246
0.0353722
0.0336267
0.0328028
0.0340057
0.0360465
0.0379588
0.0418976
0.0474376
0.0474832
0.0474452
0.0479216
0.0504016
0.0658609
0.151905
0.20403
0.192221
0.142526
0.0641863
0.0498289
0.0473216
0.0468755
0.046901
0.0471484
0.044744
0.038768
0.0356124
0.0336728
0.0328266
0.0340267
0.0362213
0.0389857
0.0445554
0.0474404
0.0469416
0.0468179
0.047562
0.0503643
0.0659616
0.148927
0.195334
0.225439
0.525492
0.66108
0.681132
0.648657
0.616442
0.604064
0.607454
0.636279
0.686013
0.731381
0.732989
0.676376
0.592399
0.529858
0.501957
0.496081
0.506739
0.523067
0.537637
0.549257
0.550741
0.540252
0.521914
0.497151
0.465077
0.426381
0.373038
0.292805
0.140894
0.229965
0.562234
0.695447
0.693602
0.644782
0.610274
0.602013
0.60721
0.641073
0.696806
0.737089
0.734326
0.662936
0.577221
0.519027
0.491478
0.487889
0.495853
0.508867
0.521109
0.529453
0.52778
0.515825
0.496875
0.472534
0.442067
0.40552
0.355225
0.27918
0.137898
0.251097
0.593975
0.729756
0.708922
0.644888
0.60493
0.591094
0.595589
0.626168
0.673385
0.703475
0.690069
0.616556
0.542561
0.49465
0.474075
0.471284
0.47886
0.490057
0.501063
0.506445
0.501731
0.489087
0.470626
0.44735
0.41877
0.384741
0.337933
0.26571
0.135031
0.267526
0.633537
0.75393
0.715082
0.64401
0.602363
0.590043
0.595308
0.620803
0.654501
0.666854
0.640247
0.573686
0.5132
0.475876
0.46161
0.458658
0.465024
0.474505
0.483109
0.485366
0.478726
0.465518
0.447369
0.425196
0.398577
0.367116
0.323499
0.254525
0.132566
0.27622
0.672145
0.778744
0.726057
0.650148
0.611103
0.599739
0.603698
0.621331
0.638262
0.631437
0.597025
0.542048
0.494393
0.465798
0.453289
0.450423
0.455226
0.461876
0.467383
0.466545
0.458292
0.444873
0.427227
0.406275
0.381618
0.352211
0.310959
0.244411
0.130001
0.284267
0.723358
0.811193
0.743176
0.669306
0.63533
0.625861
0.626815
0.63323
0.632825
0.612834
0.57568
0.528033
0.48796
0.462501
0.449005
0.446029
0.448251
0.451776
0.453866
0.450038
0.440535
0.427092
0.410135
0.39032
0.367098
0.339108
0.299588
0.235166
0.127642
0.29364
0.784229
0.852975
0.774613
0.706375
0.675562
0.662182
0.656175
0.65176
0.640819
0.613974
0.57612
0.532161
0.49419
0.467006
0.45147
0.444934
0.443543
0.443525
0.441936
0.435449
0.42497
0.411605
0.395362
0.376515
0.354293
0.327259
0.289049
0.226296
0.125219
0.305302
0.853327
0.905977
0.824849
0.76286
0.737007
0.725833
0.71441
0.700932
0.682279
0.650986
0.609338
0.561617
0.517253
0.482701
0.459348
0.447133
0.440865
0.436822
0.431335
0.422684
0.411508
0.398275
0.382644
0.364565
0.343153
0.316881
0.279771
0.218828
0.123078
0.319334
0.923573
0.973886
0.897565
0.843478
0.827639
0.822706
0.811575
0.79421
0.768103
0.72801
0.675792
0.615674
0.55737
0.50847
0.473787
0.452831
0.440416
0.431456
0.422186
0.411795
0.400099
0.386957
0.371821
0.354353
0.333562
0.307925
0.271736
0.2123
0.121162
0.334518
0.994044
1.06468
0.998051
0.95484
0.949957
0.952154
0.944305
0.923588
0.889233
0.837915
0.770933
0.69324
0.614787
0.546184
0.495326
0.462639
0.442241
0.427279
0.414738
0.402801
0.390576
0.377388
0.362651
0.345682
0.32537
0.300219
0.264614
0.206326
0.119416
0.350018
1.07589
1.18524
1.13096
1.0994
1.10766
1.11978
1.11628
1.09312
1.04844
0.982161
0.894892
0.793256
0.689142
0.595909
0.524398
0.476631
0.445968
0.424771
0.408941
0.395456
0.382616
0.369306
0.354858
0.3383
0.318329
0.293473
0.258205
0.200705
0.1178
0.365993
1.17533
1.33361
1.29867
1.27769
1.29884
1.31914
1.31837
1.29184
1.23547
1.14894
1.0374
0.908321
0.776293
0.655727
0.560206
0.494379
0.451615
0.423837
0.404632
0.389571
0.376048
0.362585
0.34829
0.332006
0.312233
0.287511
0.252486
0.195703
0.116315
0.382767
1.2903
1.5093
1.50016
1.48222
1.51093
1.53571
1.53251
1.49632
1.4228
1.31447
1.18008
1.02663
0.868498
0.721567
0.601033
0.515191
0.459337
0.424415
0.401651
0.384886
0.370636
0.356985
0.342687
0.326479
0.30678
0.28214
0.247287
0.191146
0.114949
0.400004
1.41755
1.70642
1.71948
1.69425
1.71918
1.73866
1.72507
1.67396
1.58221
1.45668
1.30681
1.13634
0.958681
0.788755
0.644984
0.53866
0.46897
0.426503
0.399828
0.38116
0.366114
0.352233
0.337766
0.321416
0.301695
0.277118
0.242351
0.186847
0.113676
0.417396
1.54923
1.90504
1.93553
1.89045
1.89976
1.90631
1.8786
1.81191
1.70587
1.56977
1.41119
1.23165
1.04165
0.854758
0.69073
0.564709
0.480887
0.430199
0.399123
0.378341
0.362427
0.348129
0.333315
0.316579
0.296636
0.271983
0.237285
0.182739
0.112413
0.432535
1.67484
2.09144
2.1333
2.05899
2.04666
2.03966
1.99912
1.91911
1.80324
1.66147
1.49704
1.31325
1.11666
0.918945
0.7385
0.594013
0.495847
0.435992
0.399812
0.376698
0.359779
0.345092
0.329786
0.312758
0.292659
0.267903
0.233087
0.178998
0.111514
0.446669
1.79248
2.2585
2.30319
2.20341
2.1696
2.14959
2.09975
2.01033
1.88804
1.74153
1.57312
1.38627
1.18609
0.982024
0.788932
0.627729
0.514575
0.444356
0.402363
0.376669
0.358377
0.342863
0.326904
0.309616
0.289353
0.264451
0.22952
0.175963
0.110807
0.460488
1.90356
2.39871
2.44407
2.32529
2.2773
2.24862
2.19287
2.09891
1.97197
1.82076
1.64793
1.45807
1.25502
1.04665
0.843898
0.668508
0.538661
0.455877
0.40702
0.377236
0.356976
0.340512
0.32434
0.306817
0.286419
0.26133
0.226285
0.173269
0.110204
0.473319
1.99826
2.49831
2.54911
2.42847
2.37633
2.34559
2.28736
2.19219
2.06183
1.90604
1.72861
1.53494
1.32861
1.1164
0.906954
0.718094
0.569086
0.470333
0.412562
0.378229
0.355931
0.338435
0.321871
0.304256
0.283722
0.258429
0.223295
0.170802
0.109693
0.483703
2.07352
2.55217
2.61137
2.51272
2.46935
2.44413
2.38818
2.29388
2.16177
2.00189
1.81941
1.62104
1.41119
1.19513
0.980489
0.776396
0.605527
0.488191
0.419584
0.380227
0.355555
0.336955
0.31984
0.302071
0.28131
0.255807
0.22058
0.168476
0.109273
0.494843
2.1201
2.54894
2.62605
2.57611
2.5574
2.54508
2.4972
2.40649
2.27441
2.11173
1.92311
1.71956
1.50536
1.28406
1.06048
0.840658
0.649661
0.511924
0.42998
0.384305
0.356336
0.336267
0.318492
0.300397
0.279409
0.253749
0.218375
0.166441
0.108985
0.505602
2.13013
2.49237
2.59337
2.61738
2.64018
2.64852
2.61362
2.53047
2.40081
2.23677
2.04091
1.83122
1.61042
1.38132
1.14655
0.91437
0.705445
0.545165
0.445263
0.390795
0.358376
0.336341
0.31788
0.299468
0.278087
0.251987
0.216319
0.164534
0.108787
0.518843
2.05446
2.35622
2.51455
2.63566
2.71599
2.753
2.73624
2.66444
2.5414
2.37215
2.17067
1.95202
1.7222
1.48457
1.24097
0.999524
0.773663
0.589165
0.466712
0.399892
0.361851
0.337312
0.317952
0.298911
0.277081
0.250632
0.214468
0.162742
0.108651
0.524488
1.90463
2.14909
2.4126
2.63685
2.78332
2.85598
2.86202
2.80494
2.68988
2.51803
2.30579
2.07618
1.83628
1.59276
1.34353
1.09436
0.853867
0.645249
0.496677
0.412291
0.36696
0.339157
0.318453
0.298487
0.276078
0.249197
0.212531
0.161227
0.108558
0.51757
1.56167
1.86833
2.28847
2.62315
2.84054
2.95494
2.98795
2.94908
2.84267
2.67225
2.45005
2.20864
1.96037
1.70995
1.4551
1.19841
0.945439
0.714723
0.537682
0.429869
0.373795
0.341546
0.318775
0.297534
0.274369
0.247111
0.210443
0.16003
0.108511
0.140976
0.293404
0.374045
0.427768
0.466451
0.498045
0.522998
0.54161
0.552558
0.552217
0.53934
0.522968
0.505978
0.495544
0.503445
0.534642
0.601724
0.689126
0.745058
0.744705
0.696453
0.645075
0.616372
0.614499
0.629472
0.665872
0.701939
0.680499
0.538947
0.232682
0.137971
0.279674
0.35611
0.406753
0.443216
0.473152
0.497577
0.516652
0.529216
0.531856
0.523637
0.509793
0.495429
0.487236
0.493007
0.523156
0.586497
0.673275
0.742069
0.746839
0.704596
0.647428
0.615588
0.611562
0.622515
0.660761
0.711377
0.710709
0.569856
0.236036
0.135096
0.26615
0.338724
0.385775
0.419739
0.447898
0.471188
0.489843
0.502828
0.50802
0.503587
0.491357
0.47974
0.471339
0.475474
0.4988
0.551097
0.626619
0.697297
0.711343
0.680378
0.634594
0.60625
0.601794
0.61722
0.661231
0.727468
0.745888
0.60416
0.25611
0.132611
0.254839
0.324091
0.367995
0.399378
0.425756
0.447749
0.46601
0.4794
0.486507
0.485189
0.475828
0.466896
0.459384
0.463225
0.479602
0.520149
0.583799
0.649505
0.675031
0.662823
0.630495
0.607532
0.602475
0.616287
0.661721
0.736175
0.773454
0.648237
0.272484
0.129975
0.244437
0.311317
0.352888
0.382178
0.406681
0.427353
0.445039
0.45862
0.467167
0.469054
0.46351
0.456903
0.452344
0.455541
0.469785
0.501117
0.552815
0.608615
0.642947
0.6497
0.635393
0.619125
0.615226
0.627674
0.66971
0.749652
0.802561
0.691558
0.281707
0.127594
0.234933
0.299744
0.339622
0.367523
0.390558
0.410035
0.426963
0.440537
0.450286
0.455022
0.453562
0.449689
0.448538
0.4525
0.467589
0.495737
0.54053
0.590039
0.627818
0.648504
0.649722
0.645606
0.645836
0.656231
0.691578
0.770304
0.838814
0.74676
0.289942
0.125152
0.225849
0.288982
0.327569
0.35459
0.376722
0.395222
0.411408
0.424808
0.435436
0.442598
0.445298
0.445364
0.447873
0.45672
0.475958
0.505803
0.547938
0.594569
0.63381
0.661604
0.673636
0.679379
0.685983
0.700222
0.733253
0.805811
0.885393
0.811428
0.300184
0.122944
0.218068
0.279465
0.317022
0.34336
0.364775
0.382565
0.398119
0.411334
0.422575
0.431745
0.438543
0.443259
0.451057
0.466807
0.494928
0.534152
0.583371
0.6349
0.67903
0.711968
0.731541
0.745724
0.756955
0.767763
0.794619
0.861022
0.943937
0.882475
0.312391
0.120989
0.211325
0.271242
0.307953
0.333748
0.354585
0.371861
0.386884
0.39997
0.411704
0.422535
0.432882
0.443537
0.458221
0.483929
0.525172
0.580868
0.645086
0.709822
0.765456
0.807927
0.835272
0.852303
0.862192
0.865928
0.882068
0.940416
1.01755
0.954313
0.327078
0.119206
0.205351
0.264052
0.300173
0.325614
0.346008
0.362899
0.37752
0.390591
0.402839
0.415167
0.428795
0.445946
0.469824
0.508873
0.568427
0.646032
0.731982
0.814944
0.885573
0.939156
0.975089
0.995412
1.00142
0.997396
1.00245
1.0494
1.11574
1.02846
0.34239
0.117574
0.199813
0.257647
0.293404
0.318612
0.338774
0.355333
0.369715
0.382902
0.395732
0.409588
0.4266
0.450221
0.485579
0.541313
0.62358
0.728045
0.841505
0.94949
1.0407
1.10999
1.156
1.17845
1.17968
1.16544
1.15714
1.19219
1.24358
1.11658
0.35756
0.116096
0.194905
0.25196
0.287437
0.312533
0.332597
0.348961
0.363249
0.376658
0.390166
0.405654
0.4262
0.456781
0.504898
0.580061
0.687665
0.820807
0.963654
1.10033
1.21658
1.3064
1.36419
1.39033
1.38893
1.36672
1.34715
1.37273
1.39933
1.22153
0.374012
0.114739
0.190399
0.246782
0.282081
0.307122
0.327138
0.343491
0.357849
0.371567
0.385855
0.403164
0.427519
0.465502
0.527085
0.622915
0.755937
0.9154
1.08443
1.24572
1.38541
1.49771
1.57343
1.61037
1.61264
1.58649
1.56069
1.5883
1.58426
1.34113
0.390965
0.113437
0.186024
0.241816
0.277117
0.302134
0.32216
0.338656
0.353207
0.367303
0.382516
0.401872
0.430337
0.476127
0.551574
0.667339
0.822794
1.00371
1.19077
1.36867
1.52379
1.65394
1.74934
1.8031
1.81783
1.79888
1.77895
1.81396
1.78861
1.47331
0.408315
0.112064
0.181541
0.236648
0.271988
0.297166
0.317591
0.334413
0.349288
0.363781
0.380084
0.401716
0.434664
0.488783
0.578179
0.71229
0.885773
1.08122
1.27861
1.46461
1.62898
1.77019
1.88125
1.95265
1.98373
1.98019
1.97902
2.03541
1.98952
1.60727
0.425363
0.111146
0.177871
0.232417
0.267894
0.293128
0.313526
0.330845
0.346246
0.361198
0.37868
0.402963
0.440974
0.504083
0.607409
0.758315
0.94546
1.14906
1.35115
1.54064
1.71116
1.85927
1.98129
2.06753
2.11353
2.12673
2.15044
2.23667
2.17742
1.73412
0.440513
0.110432
0.174788
0.228834
0.264515
0.289922
0.310619
0.328273
0.344247
0.359875
0.378703
0.405872
0.449652
0.52277
0.640613
0.806361
1.00337
1.21105
1.41539
1.60747
1.78254
1.93635
2.06584
2.16254
2.21977
2.24803
2.29639
2.4098
2.3456
1.85334
0.454432
0.109837
0.172084
0.225658
0.261548
0.287215
0.308105
0.325994
0.342354
0.35917
0.379999
0.410652
0.461202
0.546246
0.679638
0.85786
1.06248
1.27305
1.47936
1.67428
1.85398
2.01336
2.14866
2.25101
2.31552
2.35433
2.41914
2.55129
2.48523
1.966
0.46817
0.109341
0.16976
0.222739
0.25876
0.284699
0.305701
0.323743
0.340564
0.358494
0.381674
0.41717
0.476373
0.57594
0.726642
0.917027
1.1273
1.34072
1.54976
1.74824
1.93264
2.09729
2.23715
2.34191
2.4102
2.45229
2.52268
2.65479
2.58301
2.06045
0.480538
0.108941
0.167642
0.220108
0.256206
0.282323
0.303511
0.321712
0.339006
0.357958
0.383393
0.424035
0.494089
0.611612
0.782474
0.986542
1.20134
1.41766
1.62974
1.83278
2.02256
2.1921
2.33488
2.4401
2.50709
2.54472
2.60629
2.71517
2.63485
2.13437
0.490396
0.108697
0.165807
0.217994
0.254167
0.280333
0.301854
0.320393
0.338368
0.358586
0.386885
0.433184
0.515579
0.653391
0.84348
1.06216
1.28451
1.50542
1.72171
1.93009
2.12675
2.30008
2.44409
2.54699
2.60714
2.6327
2.66856
2.72674
2.63
2.17874
0.501998
0.108572
0.164083
0.216211
0.252649
0.27911
0.300925
0.319908
0.338738
0.36081
0.393093
0.447689
0.546149
0.70561
0.913168
1.14287
1.37558
1.60419
1.82747
2.04239
2.24703
2.42315
2.56596
2.6626
2.71086
2.71615
2.70865
2.69085
2.5711
2.18473
0.512375
0.108497
0.16259
0.214638
0.251463
0.278272
0.300524
0.320157
0.339913
0.364423
0.401998
0.468513
0.587988
0.770347
0.993557
1.23205
1.47355
1.71081
1.94381
2.16853
2.37946
2.56204
2.69948
2.78592
2.81678
2.79321
2.72605
2.60921
2.43317
2.10699
0.525298
0.10846
0.161354
0.213115
0.250299
0.277561
0.300322
0.320616
0.341771
0.369588
0.414109
0.496701
0.64193
0.846953
1.08407
1.33053
1.57811
1.82202
2.06528
2.30136
2.52408
2.71091
2.84117
2.91387
2.92229
2.86233
2.72748
2.50448
2.22495
1.95376
0.530064
0.108479
0.160411
0.211569
0.248829
0.276512
0.299973
0.321354
0.344531
0.376573
0.43125
0.535374
0.708479
0.934885
1.18431
1.43851
1.69219
1.94332
2.19546
2.44436
2.67838
2.86478
2.98808
3.04343
3.02463
2.92125
2.71406
2.37677
1.93704
1.60643
0.523232
0.280974
0.269226
0.256539
0.244641
0.233857
0.225905
0.220318
0.217917
0.218239
0.219934
0.222073
0.227721
0.237423
0.251912
0.27065
0.292302
0.315015
0.337151
0.357922
0.376633
0.392981
0.406962
0.418882
0.428889
0.437111
0.444017
0.450485
0.455847
0.460273
0.46406
0.467037
0.469238
0.47072
0.471485
0.471515
0.470776
0.469223
0.46679
0.463464
0.459193
0.453938
0.447665
0.440325
0.431883
0.422334
0.411677
0.400023
0.38746
0.374092
0.360027
0.345345
0.330173
0.314653
0.298956
0.283233
0.267634
0.252282
0.237289
0.222753
0.208738
0.195318
0.182592
0.170822
0.160923
0.152328
0.14472
0.137975
0.132065
0.126971
0.122545
0.118423
0.114663
0.111314
0.108399
0.105923
0.103856
0.102146
0.100735
0.0995809
0.0986604
0.0979567
0.0974455
0.0970957
0.0968754
0.096756
0.0967222
0.096767
0.0968766
0.0970489
0.0972816
0.097572
0.0979246
0.0983481
0.0988442
0.0994263
0.100084
0.100766
0.101471
0.102235
0.10303
0.103875
0.104604
0.105267
0.105902
0.106513
0.107114
0.10764
0.107791
0.108057
0.10831
0.10869
0.109147
0.109583
0.109757
0.109849
0.109859
0.109905
0.109731
0.109523
0.109256
0.108954
0.108685
0.108619
0.108634
0.108618
2.79184
2.75305
2.65439
2.53879
2.41741
2.30368
2.2102
2.14734
2.12438
2.14582
2.21531
2.32981
2.50589
2.73692
3.00683
3.29731
3.585
3.84864
4.07639
4.26465
4.41425
4.53064
4.62061
4.68939
4.74165
4.78339
4.81576
4.83233
4.83881
4.84003
4.83423
4.82232
4.80528
4.78303
4.75507
4.72116
4.68075
4.63347
4.57958
4.519
4.45163
4.37724
4.29603
4.20811
4.114
4.01367
3.90886
3.79982
3.68688
3.5708
3.45199
3.33134
3.20941
3.08629
2.96124
2.83376
2.70292
2.56831
2.42941
2.28537
2.13616
1.98238
1.8234
1.65508
1.48416
1.31786
1.16208
1.02145
0.897178
0.788101
0.693828
0.613531
0.545939
0.489678
0.443174
0.404936
0.37346
0.347275
0.325285
0.306712
0.29089
0.277287
0.265492
0.255176
0.246093
0.238008
0.230524
0.223634
0.21733
0.211581
0.206379
0.201705
0.197605
0.194071
0.191044
0.188507
0.186432
0.184836
0.183587
0.18254
0.181484
0.180212
0.1788
0.177357
0.175766
0.174043
0.172187
0.17049
0.1687
0.166939
0.165496
0.164861
0.164854
0.163672
0.162328
0.161024
0.160864
0.160843
0.160825
0.160319
0.159542
0.158921
0.158865
0.159195
0.159728
4.66526
4.62558
4.51898
4.38649
4.24644
4.12177
4.03143
3.98942
4.00659
4.09058
4.24717
4.47162
4.75209
5.08803
5.45931
5.84483
6.22334
6.57969
6.90152
7.18205
7.41915
7.61456
7.77221
7.89651
7.99304
8.06712
8.12179
8.15641
8.17372
8.17778
8.16862
8.14899
8.11974
8.08153
8.03464
7.97915
7.9148
7.84132
7.75901
7.66763
7.56678
7.45615
7.33562
7.20522
7.06528
6.91627
6.75904
6.59434
6.42306
6.24603
6.06427
5.87895
5.69105
5.50128
5.31005
5.1177
4.92437
4.72989
4.53384
4.33567
4.13505
3.93162
3.72486
3.51455
3.30124
3.08533
2.86598
2.64008
2.40834
2.17693
1.95041
1.73384
1.53234
1.3496
1.18764
1.04673
0.92591
0.823628
0.737773
0.665947
0.606027
0.556025
0.513901
0.47814
0.447386
0.42056
0.397143
0.376624
0.358576
0.342646
0.328577
0.316133
0.305156
0.2955
0.287055
0.279649
0.273174
0.267543
0.262626
0.258135
0.253938
0.249876
0.245867
0.241994
0.23827
0.234697
0.231141
0.227871
0.224588
0.221554
0.218956
0.217482
0.21772
0.217142
0.215799
0.214074
0.21292
0.212435
0.212357
0.211601
0.210355
0.20949
0.209278
0.209671
0.210403
6.47566
6.45233
6.37617
6.28059
6.18336
6.10964
6.0772
6.09967
6.18568
6.34127
6.56953
6.86801
7.20545
7.58281
7.98338
8.38693
8.77576
9.13279
9.45276
9.73307
9.97209
10.171
10.3324
10.4597
10.5564
10.6263
10.6726
10.6987
10.7074
10.7019
10.6836
10.654
10.6149
10.5674
10.5119
10.4487
10.3777
10.2983
10.2105
10.1144
10.0094
9.89496
9.77083
9.63706
9.49381
9.34138
9.18041
9.01195
8.83775
8.65844
8.47494
8.28824
8.09921
7.90848
7.71636
7.52301
7.32854
7.13233
6.93344
6.73074
6.52302
6.30896
6.08719
5.85648
5.6158
5.36452
5.10242
4.82925
4.54838
4.26415
3.97785
3.6908
3.40585
3.12565
2.85279
2.59133
2.3448
2.1155
1.90495
1.7137
1.5413
1.38677
1.24986
1.12966
1.02451
0.932474
0.851562
0.78016
0.717299
0.661983
0.613296