/*--------------------------------*- C++ -*----------------------------------*\
| =========                 |                                                 |
| \\      /  F ield         | OpenFOAM: The Open Source CFD Toolbox           |
|  \\    /   O peration     | Version:  2112                                  |
|   \\  /    A nd           | Website:  www.openfoam.com                      |
|    \\/     M anipulation  |                                                 |
\*---------------------------------------------------------------------------*/
FoamFile
{
    version     2.0;
    format      ascii;
    arch        "LSB;label=32;scalar=64";
    class       volScalarField;
    location    "0.00523";
    object      p;
}
// * * * * * * * * * * * * * * * * * * * * * * * * * * * * * * * * * * * * * //

dimensions      [1 -1 -2 0 0 0 0];

internalField   nonuniform List<scalar> 
13875
(
951598
984293
973573
975828
973696
974554
975012
974565
975256
975378
975120
975022
974645
974899
974534
974519
974843
975410
975228
974087
973413
975661
972420
982511
944890
733803
659557
672178
677178
669552
669893
677189
678969
679915
680011
679359
678447
670181
669241
670278
677793
679274
679416
677564
669945
669525
676903
672267
657413
730538
736893
635515
664325
653737
649106
647492
646947
646307
647749
650110
649060
649207
645450
645253
645237
647385
647048
649392
648688
647861
648614
652160
662045
632179
733314
743537
636159
665207
653894
649405
647650
646068
645051
645314
645552
644272
645048
645492
645356
645275
644132
643743
645227
646738
648019
648902
652282
662800
632780
739105
757370
639167
667755
654595
650260
648127
646195
645200
645416
645594
644372
645075
645633
645635
645423
644200
643859
645279
646845
648468
649693
652867
665100
635416
750510
759049
647823
673513
656549
652056
649134
646630
645598
645672
645741
644694
645198
645928
646200
645738
644429
644197
645487
647215
649421
651385
654731
670699
643147
751962
765049
668328
685727
661428
655706
651173
647676
646417
646212
646108
645261
645581
646546
646831
646294
644962
644930
646138
648232
651508
655041
660345
682247
665870
756179
791211
718346
711629
674730
663526
655607
650160
648136
647399
647022
646369
646493
647779
648098
647456
646154
646393
647609
650408
655669
662445
673192
707267
715489
782376
908575
827864
766474
704345
679169
664403
655383
651660
649942
649126
648654
648609
650298
650670
649888
648719
649349
650843
655008
663823
677128
701022
760440
823588
910636
1.52379e+06
1.02936e+06
833548
739476
697805
675195
663170
657735
654904
653691
653377
653296
655355
655788
654969
654112
655003
656910
662230
674488
696015
736728
829562
1.02622e+06
1.51938e+06
2.90465e+06
1.39249e+06
957134
796554
726642
693233
677176
669288
665137
663532
663084
662936
665046
665645
665137
664915
666003
668628
675242
690657
722729
788920
940378
1.35145e+06
2.8634e+06
5.60236e+06
2.34609e+06
1.28674e+06
937732
792472
732875
706554
693679
687445
684889
683815
683471
685037
685909
686249
687154
689241
693928
704718
729461
787990
926372
1.25189e+06
2.27378e+06
5.57507e+06
5.38857e+06
4.85113e+06
2.31409e+06
1.40236e+06
986938
838237
778356
752687
740774
735183
732476
731424
731701
732908
734877
738127
743477
754637
779242
840776
992981
1.38568e+06
2.18851e+06
4.87865e+06
5.33948e+06
4.84351e+06
4.65776e+06
4.72724e+06
3.98709e+06
1.65982e+06
1.1606e+06
986012
919477
889110
872769
864285
860261
858805
860629
865557
875511
892715
926910
1.00177e+06
1.21501e+06
1.85064e+06
4.07264e+06
4.69299e+06
4.71035e+06
4.75455e+06
4.01888e+06
4.12722e+06
4.53603e+06
4.34739e+06
4.09267e+06
2.48811e+06
1.76105e+06
1.50755e+06
1.40017e+06
1.34451e+06
1.31705e+06
1.30478e+06
1.30048e+06
1.30234e+06
1.31174e+06
1.33711e+06
1.39204e+06
1.50509e+06
1.77234e+06
2.63681e+06
4.18114e+06
4.29884e+06
4.53122e+06
4.27043e+06
4.24922e+06
3.55224e+06
3.51542e+06
3.98792e+06
4.19187e+06
4.55751e+06
4.68945e+06
3.97688e+06
3.47283e+06
3.26589e+06
3.12927e+06
3.0225e+06
2.97156e+06
2.94996e+06
2.95554e+06
2.98957e+06
3.08723e+06
3.23358e+06
3.43333e+06
3.96818e+06
4.71568e+06
4.46471e+06
4.16678e+06
4.08812e+06
3.61286e+06
3.7578e+06
2.59347e+06
2.73716e+06
3.18691e+06
3.76993e+06
4.68965e+06
5.72953e+06
7.81197e+06
8.79458e+06
9.19528e+06
9.44035e+06
9.54367e+06
9.60422e+06
9.62871e+06
9.6133e+06
9.5652e+06
9.44574e+06
9.238e+06
8.81766e+06
7.86744e+06
5.84294e+06
4.7289e+06
3.74501e+06
3.21289e+06
2.84694e+06
2.73227e+06
1.54906e+06
1.87434e+06
2.55988e+06
3.75872e+06
4.89911e+06
6.29586e+06
7.55521e+06
7.86554e+06
7.73e+06
7.66808e+06
7.55888e+06
7.4934e+06
7.46423e+06
7.49263e+06
7.58311e+06
7.72128e+06
7.84467e+06
7.95044e+06
7.5944e+06
6.28226e+06
4.93259e+06
3.71631e+06
2.38087e+06
1.7265e+06
1.41764e+06
732019
1.1378e+06
2.05583e+06
3.58483e+06
4.81353e+06
5.6427e+06
5.94869e+06
5.90667e+06
5.87346e+06
5.90557e+06
5.94257e+06
5.97803e+06
5.99916e+06
5.99673e+06
5.97333e+06
5.94762e+06
5.93269e+06
6.01256e+06
6.10021e+06
5.78995e+06
4.93618e+06
3.61436e+06
2.1129e+06
1.1694e+06
746952
356434
630983
1.35163e+06
3.014e+06
3.99069e+06
4.31515e+06
4.48687e+06
4.72397e+06
4.94276e+06
5.11272e+06
5.2274e+06
5.28744e+06
5.31179e+06
5.30028e+06
5.24083e+06
5.11909e+06
4.9437e+06
4.73171e+06
4.51648e+06
4.36894e+06
4.04093e+06
3.02445e+06
1.41203e+06
696324
402671
775414
807341
1.23858e+06
2.18153e+06
2.91036e+06
3.25303e+06
3.52667e+06
3.90869e+06
4.25329e+06
4.49479e+06
4.62786e+06
4.69533e+06
4.71747e+06
4.69761e+06
4.62601e+06
4.47579e+06
4.21172e+06
3.8559e+06
3.48716e+06
3.23587e+06
2.9118e+06
2.19188e+06
1.339e+06
964978
941606
1.25237e+06
1.19909e+06
1.23394e+06
1.56895e+06
2.1651e+06
2.50025e+06
2.88909e+06
3.32595e+06
3.67761e+06
3.91094e+06
4.04307e+06
4.11169e+06
4.1331e+06
4.10708e+06
4.03093e+06
3.88345e+06
3.62987e+06
3.268e+06
2.82471e+06
2.45149e+06
2.14323e+06
1.57655e+06
1.28743e+06
1.11249e+06
1.13573e+06
1.17626e+06
1.22452e+06
1.21832e+06
1.29088e+06
1.68758e+06
1.99996e+06
2.44815e+06
2.87126e+06
3.17725e+06
3.38692e+06
3.50791e+06
3.57501e+06
3.59368e+06
3.56598e+06
3.48908e+06
3.35223e+06
3.12664e+06
2.82167e+06
2.39563e+06
1.94333e+06
1.66197e+06
1.28209e+06
1.21122e+06
1.11867e+06
1.13422e+06
1.31485e+06
1.22948e+06
1.18517e+06
1.18272e+06
1.43499e+06
1.70503e+06
2.10335e+06
2.4679e+06
2.73528e+06
2.91809e+06
3.02789e+06
3.0929e+06
3.11215e+06
3.08321e+06
3.00938e+06
2.88195e+06
2.68702e+06
2.41769e+06
2.04958e+06
1.65852e+06
1.39753e+06
1.15348e+06
1.13967e+06
1.14187e+06
1.2945e+06
1.45257e+06
1.249e+06
1.1668e+06
1.1425e+06
1.29742e+06
1.51322e+06
1.8223e+06
2.11932e+06
2.34987e+06
2.51636e+06
2.61868e+06
2.67867e+06
2.69525e+06
2.67147e+06
2.60109e+06
2.48876e+06
2.31385e+06
2.07807e+06
1.77791e+06
1.4723e+06
1.25963e+06
1.10552e+06
1.12799e+06
1.18963e+06
1.43352e+06
1.52345e+06
1.28555e+06
1.17201e+06
1.13852e+06
1.2089e+06
1.36616e+06
1.60049e+06
1.8308e+06
2.02963e+06
2.17308e+06
2.2666e+06
2.31744e+06
2.33475e+06
2.31063e+06
2.2498e+06
2.14703e+06
1.99455e+06
1.79359e+06
1.56363e+06
1.33174e+06
1.17897e+06
1.1028e+06
1.1342e+06
1.24163e+06
1.48362e+06
1.54868e+06
1.33665e+06
1.18008e+06
1.13643e+06
1.15411e+06
1.25979e+06
1.41758e+06
1.59992e+06
1.7644e+06
1.88703e+06
1.96895e+06
2.01412e+06
2.02655e+06
2.00785e+06
1.95235e+06
1.86485e+06
1.7338e+06
1.56652e+06
1.38609e+06
1.22717e+06
1.12723e+06
1.09977e+06
1.14965e+06
1.32616e+06
1.50076e+06
1.58824e+06
1.42802e+06
1.1989e+06
1.12973e+06
1.11836e+06
1.1594e+06
1.27053e+06
1.40692e+06
1.53929e+06
1.63961e+06
1.71401e+06
1.75214e+06
1.76473e+06
1.74685e+06
1.70247e+06
1.62518e+06
1.51863e+06
1.38303e+06
1.24633e+06
1.13643e+06
1.09416e+06
1.0987e+06
1.17145e+06
1.45014e+06
1.53457e+06
1.67456e+06
1.54541e+06
1.22835e+06
1.11259e+06
1.08433e+06
1.08552e+06
1.15111e+06
1.25327e+06
1.35874e+06
1.44056e+06
1.50024e+06
1.53419e+06
1.54286e+06
1.52919e+06
1.49017e+06
1.42695e+06
1.33949e+06
1.23404e+06
1.13352e+06
1.06809e+06
1.06353e+06
1.09e+06
1.1939e+06
1.50484e+06
1.59792e+06
1.80801e+06
1.67055e+06
1.25328e+06
1.09955e+06
1.04367e+06
1.03246e+06
1.06005e+06
1.12585e+06
1.2044e+06
1.26764e+06
1.32004e+06
1.34596e+06
1.355e+06
1.34089e+06
1.31046e+06
1.25618e+06
1.18921e+06
1.10885e+06
1.04315e+06
1.01647e+06
1.02658e+06
1.07789e+06
1.23078e+06
1.62371e+06
1.71247e+06
1.82189e+06
1.73511e+06
1.29544e+06
1.09089e+06
1.00337e+06
983097
983931
1.02176e+06
1.07778e+06
1.12669e+06
1.16696e+06
1.18969e+06
1.196e+06
1.18646e+06
1.16029e+06
1.11923e+06
1.06957e+06
1.01248e+06
974558
970191
988571
1.07135e+06
1.26893e+06
1.69574e+06
1.80787e+06
1.82748e+06
1.74307e+06
1.36912e+06
1.09402e+06
972769
928744
920458
937993
974307
1.00801e+06
1.03879e+06
1.05465e+06
1.0614e+06
1.05247e+06
1.03337e+06
999759
966626
928715
911458
919444
960385
1.07378e+06
1.32312e+06
1.74164e+06
1.83435e+06
1.82766e+06
1.7384e+06
1.47154e+06
1.10102e+06
944442
884705
866762
867938
888498
911197
931361
943811
947681
941568
926158
904637
883954
861200
858673
873992
931066
1.08315e+06
1.42578e+06
1.74266e+06
1.83442e+06
1.8252e+06
1.72945e+06
1.5666e+06
1.12462e+06
931874
845822
813163
806616
812950
825166
840181
847570
851219
845646
837082
821307
808448
801819
808765
839669
918487
1.09708e+06
1.51878e+06
1.73126e+06
1.83105e+06
1.81941e+06
1.70717e+06
1.57511e+06
1.17111e+06
933096
815540
767478
754364
751570
756948
764699
769052
770360
767657
762121
753922
748254
749217
760066
805325
919532
1.12675e+06
1.58027e+06
1.70841e+06
1.82255e+06
1.80379e+06
1.64901e+06
1.57007e+06
1.23706e+06
937386
792006
729140
705791
698106
696600
699438
700431
702100
698703
697435
694090
694403
701603
724541
785510
927684
1.18376e+06
1.58064e+06
1.66089e+06
1.80402e+06
1.77093e+06
1.60728e+06
1.56023e+06
1.33335e+06
954122
777145
695187
663569
650653
647049
646059
645215
644979
643958
644421
645556
649488
660652
689567
767652
936987
1.26046e+06
1.56596e+06
1.608e+06
1.76246e+06
1.70485e+06
1.57292e+06
1.53632e+06
1.38855e+06
987678
778529
672441
628558
609381
601138
598761
596404
596670
595583
597764
600345
607356
625639
668057
768791
960854
1.41603e+06
1.5382e+06
1.55896e+06
1.68883e+06
1.64686e+06
1.53671e+06
1.47978e+06
1.3852e+06
1.0324e+06
782860
657666
600483
575289
565007
559515
557099
556537
556601
558796
564791
574871
596896
649773
777950
1.01012e+06
1.41485e+06
1.48296e+06
1.51718e+06
1.62098e+06
1.59355e+06
1.49997e+06
1.3954e+06
1.37697e+06
1.12215e+06
799178
658179
580028
545797
530436
524377
520791
521089
520751
524038
530244
544683
578016
650106
791284
1.08628e+06
1.39666e+06
1.40117e+06
1.4824e+06
1.58373e+06
1.54285e+06
1.45989e+06
1.33057e+06
1.35512e+06
1.22433e+06
832435
662655
568526
523233
505685
496031
492238
491319
492096
495636
505766
523530
565877
653401
821249
1.23964e+06
1.3592e+06
1.33059e+06
1.45823e+06
1.54255e+06
1.50685e+06
1.42831e+06
1.27945e+06
1.30657e+06
1.2207e+06
881264
669154
568740
508032
480934
470074
465064
464438
464293
469751
480652
506457
566392
666201
885350
1.23727e+06
1.28454e+06
1.27718e+06
1.42897e+06
1.49662e+06
1.46245e+06
1.39942e+06
1.24572e+06
1.233e+06
1.20767e+06
984054
688711
572420
501773
467129
450192
443669
441679
443216
449450
467562
500601
568789
685838
998832
1.21634e+06
1.21437e+06
1.23572e+06
1.3975e+06
1.46243e+06
1.41851e+06
1.36681e+06
1.22338e+06
1.16751e+06
1.17587e+06
1.05243e+06
727285
582105
502358
454886
432314
422474
420693
422259
431699
453394
500953
576491
724110
1.04797e+06
1.17157e+06
1.1514e+06
1.21088e+06
1.36419e+06
1.41929e+06
1.3868e+06
1.32887e+06
1.2025e+06
1.11392e+06
1.10817e+06
1.04687e+06
793634
598122
504301
454692
423170
409236
406677
408740
422123
453467
504669
596579
805590
1.04188e+06
1.08682e+06
1.10545e+06
1.19232e+06
1.31994e+06
1.3723e+06
1.34898e+06
1.29533e+06
1.18728e+06
1.07104e+06
1.04105e+06
1.03079e+06
931763
632572
512647
456056
422683
398699
392459
398020
418957
454410
512836
630781
936767
1.01967e+06
1.01942e+06
1.06639e+06
1.17528e+06
1.27983e+06
1.33915e+06
1.30645e+06
1.24908e+06
1.16393e+06
1.04859e+06
992934
994441
930318
702539
532789
460777
423280
398204
387988
397789
419327
457969
532580
699414
932277
973061
971377
1.04613e+06
1.15541e+06
1.24043e+06
1.29845e+06
1.26381e+06
1.21267e+06
1.14212e+06
1.02799e+06
954933
936119
917605
834251
570657
471306
424959
398585
388559
398271
422138
469402
577010
840038
919294
921896
938908
1.02617e+06
1.13241e+06
1.201e+06
1.24995e+06
1.17841e+06
1.15708e+06
1.11039e+06
1.01504e+06
930215
889004
889453
832645
651048
495379
431484
400612
390511
400064
429281
493183
663854
837834
888961
884797
919992
1.01189e+06
1.10202e+06
1.14753e+06
1.16683e+06
1.04573e+06
1.08499e+06
1.06605e+06
993309
912998
851540
842068
823174
761400
547399
448808
406436
395407
405508
446865
544664
760243
826331
843256
850900
907357
988365
1.0563e+06
1.07755e+06
1.03787e+06
159714
180327
184653
197446
209871
214994
212724
207472
201619
189091
161790
143065
133053
129108
124533
119195
113302
109273
106314
103581
100815
98984.9
98055.8
95877.8
92357.3
89056.3
86603.3
84621.6
83645.9
82888.8
159581
179208
183758
197146
207455
210748
209247
204960
199640
188158
162833
145608
132986
126297
121544
116354
110267
106058
103090
100418
97658.7
96065.4
95316.2
93791.1
90498
87149.4
84677.4
82619.1
81558.6
80814.9
160468
179414
183623
196702
202677
204669
203995
200439
195308
187061
168198
148478
133003
123488
118895
113810
107591
103147
100154
97468.4
94827.1
93379.8
92656.4
91688.5
88561.7
85188.5
82720.2
80699.5
79696.2
78824.6
160489
179404
183377
194688
199485
200165
198548
193854
189499
184938
172930
150676
133550
122163
116321
111033
105112
100262
97226.9
94511.5
92054.3
90628.7
89924.1
89374
86432.4
83083.3
80646.4
78796.5
77867.6
77062.6
161370
179418
183303
192082
195925
196526
194921
190697
184555
181541
174242
153204
134816
122059
115315
109200
103011
97716.1
94595.6
91876.8
89482.9
88107.7
87441.7
87208.4
84511.1
81231.2
78808.8
76753.5
75719.7
74958.8
163020
179473
183511
189437
192602
193785
192165
187865
181710
179020
174192
161808
136158
122213
114945
108507
100740
95432.7
92100.1
89424
87186.5
85862.9
85270.5
85154.3
82615.3
79218.3
76435.6
74005
72532.4
71263.1
165163
179544
183093
186795
189577
190195
188958
185225
179292
176654
174004
166145
139001
122673
114874
108270
98937.3
93314.6
89460.2
86791.2
84698.8
83365.2
82697.2
82486.9
79937.8
76332.9
73096.3
70165.2
68429.4
67032.7
169025
181913
183080
186214
187926
187864
186552
183145
177123
174463
172859
167162
143843
123720
114933
108208
98394.8
91139.9
86467.7
83463
81083.9
79418.5
78397.7
77672.1
75201.3
72121.8
69291.2
66929.9
65624.5
64705.6
177608
184192
183663
186079
186585
186317
184921
181705
175965
172590
171180
167155
149362
125519
115825
108272
98350
89000.3
83646.8
79981.5
77322.5
75542
74428.3
73655.4
71794
69278.5
66931.6
64973.1
63844
62993.7
182126
185911
184549
186531
185934
185751
184291
180284
175026
171017
169834
166684
156551
128470
117021
108787
98466.9
88349.1
81370.5
76922.4
74210.6
72489.2
71446.4
70724.4
69218.4
67073.6
65004.7
63295.5
62283.7
61526.2
184198
186907
185245
185900
185300
183159
180193
178294
173870
169349
168307
165589
158312
132353
117678
110050
99288.3
88311.3
79472.2
74553.8
71791
70138.5
69121.2
68367.8
67050.3
65189.8
63358
61817.6
60894.2
60170.1
185022
187504
185461
186288
185270
182010
178334
173168
171161
167139
166204
163965
158424
135348
118055
112032
101149
88606.9
78346.9
72811.5
69913.3
68297.7
67258.4
66436
65198.6
63560.9
61919.7
60523.7
59657.6
58976.9
185747
188639
186369
186629
185385
180832
174333
170969
166194
164438
163863
162000
158016
138867
118424
114815
103882
89686
78101.5
71633.3
68443.3
66833.6
65755.3
64859.6
63643.4
62155.9
60658
59375.3
58561.5
57902.3
186012
189810
188935
186656
184022
176206
170551
165716
160966
162026
161521
160148
157581
140333
118771
115369
107338
91762
78152
70815.3
67346.2
65655.6
64499.2
63534.5
62311.1
60933.8
59528.4
58323.9
57534.4
56884.1
186044
190220
189851
186664
181634
174507
166928
157481
157916
158663
159011
158651
157466
140916
119376
115206
112496
94990.5
78748.2
70549.3
66578.2
64677.3
63406.5
62374.9
61128.9
59801.9
58412
57235.3
56443.3
55779
185365
190338
190261
185913
180203
173169
161383
153403
154384
155480
157622
157870
157293
141031
120233
114832
121247
99969
80460.9
70621.5
66011.6
63811.4
62399.3
61301.2
60000.2
58653.9
57198.4
56009.1
55166.6
54497
185162
190196
190350
185057
177599
165418
154511
148453
150686
154172
157094
157718
157917
140874
121320
114753
123181
109575
83778
71192.5
65637.2
62988.2
61446
60241.6
58852.6
57424.4
55860.4
54653.5
53763.9
53100.7
185413
189466
190117
183766
175270
161363
151669
146755
149114
153681
157421
160527
159190
139330
122457
114865
122938
125682
90287.2
72850.4
65597.5
62166.9
60487.9
59122.5
57617.8
56107
54481.2
53297.3
52391
51780
184754
188211
189031
181625
172211
158756
151030
146545
149314
153562
160553
166738
160330
138210
123388
116608
119976
129198
105513
76400.7
65822.5
61432.6
59469.4
57929.3
56325
54756
53113.8
52018.7
51135
50559.7
185502
187257
186902
178702
169989
157769
151034
148181
152591
159125
167124
171507
159994
137660
124774
119074
119327
128482
125649
83781.5
67380.8
61191.8
58253.2
56657.8
54974.3
53361.2
51724.8
50737.9
49884.6
49358
183347
183835
183312
174939
166510
157700
154058
153098
159229
167061
171928
173523
160166
137653
126486
121328
119552
124137
128723
104078
71520.2
61263.2
57106
55233
53612.9
51972
50391.9
49501
48621.5
48176.2
182526
181794
178356
170401
162483
158016
156708
158699
165820
171233
173926
174127
161156
140297
128745
123017
120867
121589
126784
123243
80381.1
63380.4
56701.3
53501
52162.5
50616.4
49193.9
48362.3
47513.6
47122
176582
173760
172290
163842
159815
158139
157893
162076
168698
172818
174393
172382
160927
146415
132882
126052
122734
121155
122202
125223
103455
67819.3
57298.9
52821
50480.4
49393.9
48155.1
47405.8
46607.2
46249.2
172510
168633
163793
159476
158267
157971
158406
163555
169647
173156
174304
170688
160966
150228
141310
131227
124892
121568
120967
123318
118504
77245.6
59517.2
52749.1
49675.5
48054.9
47225.9
46577.3
45824
45499.5
152104
156068
155165
154066
155381
155719
158583
164066
169891
172673
173587
169396
160853
152618
145408
138495
129405
123340
120808
119135
119740
101171
63985.6
53680.9
49426.1
47213.5
46248.1
45827.2
45113.2
44819.9
83393.9
84167.5
85158
87150.7
89569.7
92745.9
95921.6
97877.8
98953
100869
103564
106236
109250
113345
119237
124498
129034
133228
144368
164101
191569
201651
207083
211545
213392
207942
195958
183233
178973
159002
81352.7
82106.1
83170.8
85217.4
87638.8
90810.6
93707.3
95098.2
95959.3
97735
100403
102992
106026
110330
116381
121512
126273
133733
147234
166894
189866
199548
204321
208196
209297
205088
195308
182334
177869
158646
79357.3
80233.5
81230.7
83248.2
85651
88808.9
91493.5
92409.6
93229.3
94862.4
97481.4
100048
103111
107689
113823
118825
123506
134102
150559
172654
188025
194487
198639
202664
203403
202428
194585
182212
177997
158969
77560.7
78357.3
79259.1
81105
83477.9
86590.6
89068.5
89623.2
90446.6
92058.6
94561.9
97125.6
100234
105260
111082
116366
122734
134917
152963
174399
184723
188350
193732
197487
198903
197978
193307
182057
178014
159078
75402.9
76167.8
77197.4
79195.8
81533.7
84565
86816.3
87102.3
87910
89505.8
91928.2
94519.7
97744.3
103192
109492
115580
122796
136475
157361
174732
180805
183819
190492
193893
195061
194085
189927
182054
178065
160209
71711.7
72977
74416.1
76796.9
79473.4
82586.4
84697.8
84916.4
85630.5
87178.3
89485
92045
95519.6
100869
108870
115347
123091
138075
165212
174390
178137
181050
187128
190780
192111
190340
186819
181626
178097
162110
67452.9
68849.5
70562.8
73478
76612.9
79924.9
82019.7
82334.7
83107.9
84607.7
86812.8
89403.4
93432.9
99339.1
108651
115328
123771
141695
167001
173587
175633
178545
184616
187896
188983
188167
185620
181518
178303
164471
65130
66063.5
67347.8
69646.7
72311.3
75148.3
77366.9
78132.1
79222.7
80978.4
83436.9
86428
91158.6
98894.5
108594
115445
124925
147036
167244
171874
173346
176506
182638
185748
186762
186642
185295
181472
180865
168541
63351
64205.3
65318.5
67241.1
69470.2
71767
73425.7
74267.1
75424.1
77276.2
79963.9
83652.5
89222.4
98878.1
108655
116526
126966
154313
167005
170141
171361
175526
181149
184158
185814
185872
185595
182280
183097
176878
61817.5
62576.5
63569.6
65234.3
67186.2
69140.2
70509.5
71310.3
72408.2
74206.4
76957.5
81424.4
88699.8
99031.9
109180
117412
130564
158205
166195
168870
169876
174515
179408
183577
185477
185524
185667
183486
184856
180510
60405.5
61124.8
62024.5
63511.8
65237.2
66941.4
68175
68998.5
70067.7
71796.3
74630.2
79518.9
88702.3
99952.8
110446
117940
134588
158812
164833
167182
168180
173008
177420
179481
182874
184708
184886
184571
185989
182190
59158.2
59832.1
60673.3
62011
63559.7
65074.5
66259.5
67142
68234.2
69916
72906.9
78603.3
89073
101864
112732
118363
138270
158610
163075
165174
166123
170049
171840
177429
181592
184645
185640
184698
186678
183053
58034.9
58686.9
59473.8
60700.6
62118.1
63508.3
64687.3
65628.9
66765.2
68438.5
71744.7
78453.8
90298.1
104567
114562
118747
141357
157922
161050
162799
163433
164081
169023
172965
179070
184678
185934
186656
187843
184012
56971
57617.9
58381.2
59532.8
60865.2
62164.7
63360.6
64358.9
65574.6
67332.4
70958.5
78564.4
92519.2
107914
114829
119242
142734
157517
159233
160306
160814
159900
163057
169627
174951
182562
185950
188339
188887
184363
55823.1
56491.1
57263.4
58393.1
59712.6
60970.9
62197.5
63253.5
64585.2
66574.4
70731.6
79284.2
95876.1
113348
114507
119978
143188
157184
157805
157956
156554
156126
155798
165715
173646
179968
185792
189139
189205
184461
54496.6
55178.1
56010.1
57164.8
58548.8
59828.7
61115
62237.7
63701.2
65996.3
70836.1
81118.5
100959
120497
114309
120857
143303
156830
156644
156453
153996
152795
152452
160257
172535
178236
184970
189453
189274
184157
53057
53736.2
54627.9
55815.2
57315.4
58674
60048.6
61273.7
62857.1
65648.2
71464.3
84616.4
111079
121666
114200
121791
143032
157490
156303
155807
152321
148878
147002
153311
165520
175860
184108
189535
189033
184074
51714.7
52344.2
53249
54423.8
56005.6
57451.4
58937
60319.7
62024.3
65611.2
73254.3
91366
125030
121080
114433
122684
141157
159260
158980
155559
151683
147327
145226
150366
160157
173521
182612
188914
188367
184573
50504.9
51098.1
51980.9
53082.3
54673.5
56176.6
57753.5
59315.9
61372.9
65912
76956.2
107273
127538
118316
116153
123380
139380
161280
165658
158379
151706
147781
145012
149660
157426
170234
180722
187435
187167
184173
49332.3
49876.7
50715.8
51718.7
53305.1
54860.2
56518.1
58123.3
61196.2
67616.6
84668.1
124856
126562
117876
118523
124598
138596
161819
171194
164847
157451
151126
146824
149651
156340
167566
177854
185013
186426
185197
48130.2
48604.4
49458.6
50377.8
51949.4
53546.2
55130.3
57088
61344.5
71943.4
105497
127052
121905
118272
120401
126190
138366
162332
173496
171077
165893
157932
151664
152715
156223
164610
174026
181229
183019
182998
47020.7
47428.2
48285.6
49131.7
50588.2
52121.1
53468.7
56724.3
63596.8
81086.3
122147
124767
119907
119760
122130
128432
141299
163042
174203
173531
170368
164300
156857
155096
156576
161223
169519
176454
180783
181748
46112.3
46481.6
47286.5
48046.4
49313
50385.8
52822.7
57423.1
68274.3
104750
123510
120387
119656
121441
125360
133128
148107
162763
172879
174137
172101
167241
159945
156110
156726
158777
162838
170573
172774
175166
45371.8
45702.6
46447.7
47086.9
47873
49630.4
52797.4
59794.4
78256.7
117428
121234
119222
120254
123933
131286
142107
151312
162043
171352
173900
172442
168318
161373
156539
156776
157493
158486
162570
167486
171105
44704
45004.7
45700.5
46072.6
47147.5
49432.2
53798.6
64543.3
102383
118145
117375
119129
122306
129349
138665
146105
153415
161764
169943
173255
172063
168656
161897
156682
155294
154785
153216
154250
155222
151153
833724
829585
827537
825275
821401
815599
808379
798519
785272
769948
750442
729061
704382
679623
651986
624281
595249
565619
536380
506410
478650
451671
426858
403499
382087
362365
344599
328583
314234
301289
289493
278661
268734
259551
251075
243175
235963
228939
222178
216410
211687
209301
206481
203400
201236
200316
200903
201584
203108
205364
208615
213262
219825
229267
241040
261656
287143
318045
355336
387822
407870
419434
428838
436757
442289
439636
435815
427529
418598
411251
404552
397131
389677
382849
373919
364003
355150
347351
339953
333930
328624
322108
313701
303715
292684
281040
269153
257628
247258
238590
232142
227661
224116
221003
218246
215835
213666
211548
209118
205786
201372
195640
188497
180322
169820
156154
139497
121483
103301
84090
66287.4
54268
48355.7
45002.8
43198.7
42193.6
41715.5
41696.5
41721.9
41803.5
42001
42412.9
42902.5
43503.8
44079.2
832567
830022
828798
826953
821592
815275
806845
795527
781164
764320
745025
722721
698636
672669
644021
615951
585851
557779
530125
503629
477706
451759
427499
404616
383724
364201
346347
330080
315184
301343
288202
276612
266267
256251
247069
239496
233206
227629
222116
218513
215057
212124
209934
208143
207129
207400
207835
209192
211390
214895
220036
227599
239907
259049
279446
291755
301313
310268
320160
330795
339168
345704
353140
361589
372705
383180
392347
401142
407003
411278
413595
413382
411947
409702
406408
401165
393143
381838
371466
360291
348887
337855
327171
316906
307198
298047
289498
281740
275001
269151
263197
256507
249293
241521
233000
223594
213246
201963
189880
177479
165595
154895
144920
134612
125100
116721
109205
102177
95818.4
90792.9
85722
76450.6
62846
51742.7
46595.9
43979.2
42646
42346.4
42330.5
42332.4
42395.9
42581.5
43130.6
43730.9
44343.4
833457
830986
829776
827302
821083
814098
803792
790967
774897
756640
735925
712863
687949
661459
633959
606010
577327
549513
521578
494502
469290
446674
424930
404331
385062
367389
350878
335619
322263
309883
297848
286613
275675
265863
255359
248197
240870
234079
228764
224596
221178
218886
217830
217731
218235
218943
220107
222191
225412
230159
238418
251282
272459
288215
291821
295084
298870
303687
309188
313430
317707
321346
324966
328107
331642
335145
338128
341771
345362
349778
352756
352773
352913
352921
354928
354923
354373
352836
349122
341061
329639
319947
310392
300992
292044
283504
275219
266776
257881
248580
238509
227716
216865
206183
195635
185179
174867
165033
156026
147680
139926
133088
127026
121085
114773
108274
102661
98065.6
94035.7
91537
89384.6
87167.1
84381.3
79284.2
65778.1
52899
47570.2
45193.3
44319.3
43995.4
43838.2
43820.9
43872.3
44117.4
44878.2
833840
830821
829339
826760
820325
813093
802285
789337
772981
753127
730425
705315
677862
649361
620062
591603
561495
533260
506147
481072
458575
437071
417803
400069
383290
367610
352943
339120
325656
312670
301243
292619
282632
273261
265015
257483
250031
243254
237633
233351
230434
228738
229006
229165
229824
231032
232137
234188
238056
243232
253995
273437
292640
296539
296360
296927
298904
303846
306889
309730
312375
313978
315129
315557
315307
314120
313036
311479
310487
307941
305410
301796
300733
300000
299765
299127
296596
291469
285354
278405
271492
264855
257784
250465
243100
235708
228060
220583
212825
204548
196109
187329
178576
170334
162869
156027
149750
143816
138057
132882
128205
123523
119356
115535
111396
106683
101726
97526.9
94674
92676.3
91314.5
90243.1
89153.4
87836
85347.6
80107.3
65526.3
53919.8
49388.3
46977.6
45771.3
45243.2
45146.2
45159.1
45434
833368
831649
830866
829578
823342
816308
805154
791638
773953
750795
725487
697979
668717
638053
607402
578635
550944
524294
498193
472060
446917
423970
403721
386159
370095
355031
339115
328764
317801
306457
296529
287867
279724
272392
265975
260374
255334
250480
246198
242959
241315
241710
242063
242334
243604
244804
246106
249047
253720
260697
274944
292745
300604
301771
302338
303684
307088
312388
312874
312359
311712
312428
313124
312178
309270
305340
302280
299109
295291
290516
285621
280781
277312
274301
270985
266952
261640
255888
250013
244209
238182
231962
225507
218863
212308
205870
199526
193398
187347
181143
174902
168662
162346
155993
149837
144342
139385
134877
130687
126730
123274
119995
116476
113500
110312
107121
104154
101229
98460.2
95986.2
93931.8
92366.7
91382.2
90815.2
90162.7
89205.8
87223.6
82717.6
68280.2
55786.3
50849.6
48538.4
47403.3
46966.1
46909.2
840036
838718
838089
837532
833021
826979
813884
797362
773839
748197
718690
686461
654715
624592
594495
564327
536128
510805
486848
463876
441989
421433
401785
381919
366692
352325
337856
325607
314740
304657
295425
287530
280334
273767
268154
263677
260093
257110
254787
253794
253953
254434
254808
255165
256764
258237
259659
263353
267989
276080
290970
300988
304309
305729
307070
309152
313120
317670
319882
319911
319660
318732
316271
311274
306837
302421
298116
294324
289209
283508
277332
272185
267171
262173
257043
251596
245899
240056
234428
228800
223102
217048
210860
204624
198350
192112
186289
180708
175510
170338
165151
160095
154784
149476
144248
139319
134966
131062
127626
124458
121421
118720
115846
112753
110584
108977
107204
105091
102722
100272
97914.1
95701.1
93849
92742.8
92402.1
92378.1
92384.3
92173.4
91010.6
86665.3
70406.9
57586.3
52752.1
50685.4
49637.6
847865
846625
845950
845323
839970
833721
817129
797160
767248
737724
706165
672391
636857
603700
573702
546058
519909
493913
469640
447005
426091
408143
394208
378933
363267
348781
335521
323367
313246
304444
296678
289876
284074
279066
274850
271487
269067
267653
268045
268179
268217
269034
269591
269832
271016
272632
273955
277446
281327
289145
298001
305201
307982
309776
311760
314705
318464
321941
322717
323861
323742
323131
321579
317532
308743
301451
297203
293135
287431
281026
274469
268936
262769
256665
250599
244591
238861
233048
227507
221839
216083
210099
204060
198066
191909
185763
180086
174781
169835
165164
160502
155903
151156
146361
141912
137511
133441
129779
126516
123726
121024
118312
115934
113708
111676
110108
108865
107606
106117
104394
102526
100492
98418.7
96609.3
95587.9
95329
95324.5
95440.1
95725.1
95882.5
95297.8
90666.7
71513.9
60300
56011.7
865598
863596
862459
859839
850690
841814
820324
796954
764737
731517
691908
654545
622197
589716
556900
526266
498775
473356
449902
426321
409467