/*--------------------------------*- C++ -*----------------------------------*\
| =========                 |                                                 |
| \\      /  F ield         | OpenFOAM: The Open Source CFD Toolbox           |
|  \\    /   O peration     | Version:  2112                                  |
|   \\  /    A nd           | Website:  www.openfoam.com                      |
|    \\/     M anipulation  |                                                 |
\*---------------------------------------------------------------------------*/
FoamFile
{
    version     2.0;
    format      ascii;
    arch        "LSB;label=32;scalar=64";
    class       volScalarField;
    location    "0.00372";
    object      alphat;
}
// * * * * * * * * * * * * * * * * * * * * * * * * * * * * * * * * * * * * * //

dimensions      [1 -1 -1 0 0 0 0];

internalField   nonuniform List<scalar> 
13875
(
0.119859
0.0816042
0.0784615
0.0782765
0.0782673
0.0783715
0.0783904
0.0783505
0.0783019
0.078276
0.0782591
0.0782969
0.0783874
0.0784167
0.0783975
0.0782914
0.0782292
0.0782818
0.0783429
0.0783743
0.0782879
0.0782579
0.078486
0.0814338
0.120886
0.103938
0.0576791
0.0570938
0.057159
0.0566646
0.0565713
0.0565705
0.0566597
0.0570542
0.057098
0.0571034
0.0570952
0.0566635
0.0566285
0.0566737
0.0570771
0.0570504
0.0570156
0.0566724
0.0565805
0.0566337
0.0571344
0.057072
0.0573505
0.104656
0.110621
0.0553289
0.0558866
0.0547076
0.0544562
0.0543142
0.0542495
0.054259
0.0542547
0.0541524
0.0542969
0.0543016
0.0542865
0.0543086
0.0542614
0.054339
0.0540303
0.0542948
0.0543133
0.0543729
0.0544472
0.0545715
0.0557717
0.0550953
0.111323
0.115889
0.0546468
0.0553904
0.0542888
0.0539024
0.0537741
0.0537115
0.0537143
0.0535323
0.0534562
0.0535198
0.053548
0.053746
0.0537748
0.0537197
0.0535779
0.0533707
0.0535619
0.0537696
0.0538397
0.0539129
0.0541698
0.0551887
0.0543095
0.115794
0.121037
0.0546378
0.05513
0.0537258
0.0535617
0.0533614
0.0532516
0.0532354
0.0530442
0.0529761
0.0530309
0.0530627
0.0532672
0.053302
0.0532443
0.0530886
0.0528912
0.0530885
0.0533074
0.0534045
0.0535372
0.0535801
0.0550073
0.054325
0.121278
0.124418
0.0547467
0.0551933
0.0535743
0.0531682
0.0529559
0.052856
0.0528172
0.0526114
0.0525617
0.052597
0.0526491
0.0528544
0.052897
0.0528314
0.0526444
0.0524811
0.0526375
0.0528873
0.0530214
0.0531666
0.053473
0.0548809
0.0543955
0.12399
0.128764
0.0564792
0.055791
0.053431
0.0531645
0.0527997
0.052599
0.0525022
0.0522643
0.0522263
0.0522282
0.0523083
0.0525286
0.0525787
0.0525047
0.0522826
0.052165
0.0523255
0.0526297
0.0528578
0.0531476
0.0533474
0.0556352
0.0563589
0.128926
0.135739
0.0612065
0.0578489
0.0543953
0.0533246
0.0527728
0.052473
0.0523184
0.0520553
0.0520157
0.0519898
0.0520678
0.0523335
0.0523983
0.0523086
0.0520343
0.0519816
0.0521188
0.0524919
0.0528283
0.0533173
0.0542788
0.0575335
0.0610416
0.135624
0.151426
0.0692909
0.0615929
0.0559628
0.0544294
0.0533643
0.0527499
0.0524279
0.0520874
0.0520367
0.0519893
0.0520578
0.0523707
0.0524638
0.0523501
0.0520114
0.0520417
0.0522171
0.0527193
0.0533633
0.0543503
0.0557417
0.0610366
0.0684007
0.154347
0.239484
0.0874693
0.0665539
0.0590837
0.0557073
0.0542557
0.0534127
0.0529227
0.0525739
0.0524936
0.052438
0.0524897
0.052854
0.0529758
0.0528429
0.0524704
0.0525419
0.0527399
0.0532993
0.0542066
0.0557195
0.0588378
0.0661717
0.0868556
0.241465
0.365775
0.118786
0.0764313
0.0629122
0.0587128
0.0562248
0.0549913
0.0542906
0.0539078
0.0537687
0.0537033
0.0537295
0.0541227
0.0542781
0.0541673
0.0538202
0.0538728
0.0541009
0.054737
0.0559971
0.0584527
0.0626222
0.0751344
0.112938
0.365375
0.659354
0.19464
0.105076
0.0764924
0.064795
0.0603874
0.058525
0.0575158
0.0570235
0.0567967
0.0567152
0.0567221
0.0570911
0.0572865
0.0572324
0.0570103
0.0570564
0.057362
0.0582175
0.0598684
0.0646779
0.0755545
0.103053
0.185742
0.645386
0.583831
0.424271
0.187455
0.0972749
0.0827303
0.0718345
0.0672935
0.0655123
0.0645985
0.0641986
0.0640768
0.064077
0.0643509
0.064582
0.064617
0.0646324
0.0648768
0.0655848
0.0671506
0.0715987
0.0824949
0.0946259
0.177577
0.421631
0.581375
0.500026
0.400649
0.363523
0.378928
0.138346
0.0975824
0.0911692
0.0880181
0.0865783
0.085827
0.0856186
0.085644
0.0858633
0.0861006
0.0863068
0.0866548
0.0874886
0.0891226
0.0924183
0.101422
0.15404
0.378458
0.356868
0.401131
0.505882
0.411801
0.356994
0.349408
0.384942
0.321653
0.221626
0.186709
0.152966
0.136304
0.1332
0.130739
0.130875
0.130183
0.130953
0.131522
0.133705
0.136988
0.152415
0.190648
0.228512
0.319481
0.381833
0.344965
0.368195
0.430898
0.354556
0.326218
0.326786
0.39336
0.487851
0.562739
0.540723
0.502491
0.533951
0.547528
0.558236
0.554032
0.558407
0.559909
0.559451
0.552508
0.531418
0.499316
0.533372
0.569373
0.492424
0.399869
0.331463
0.333277
0.366891
0.277665
0.290143
0.353583
0.444188
0.528311
0.604349
0.528024
0.474441
0.465631
0.463122
0.466527
0.464621
0.466431
0.468172
0.469739
0.466552
0.466745
0.474498
0.512842
0.602401
0.541951
0.447774
0.353294
0.293626
0.292707
0.21651
0.284891
0.373241
0.41623
0.461232
0.501945
0.440005
0.40066
0.394188
0.39106
0.3934
0.39084
0.393018
0.394215
0.395837
0.392543
0.395018
0.402637
0.434179
0.497022
0.47018
0.433275
0.381144
0.267075
0.196869
0.105616
0.206128
0.352074
0.363967
0.370622
0.397482
0.379541
0.359643
0.356309
0.353265
0.351841
0.349892
0.351501
0.352492
0.353543
0.353181
0.355432
0.356993
0.37217
0.395342
0.376143
0.375532
0.363182
0.209777
0.104428
0.0455379
0.149944
0.273652
0.289113
0.290795
0.319804
0.338494
0.335369
0.330376
0.322767
0.317215
0.313025
0.313979
0.315603
0.319135
0.323113
0.32982
0.333247
0.334777
0.319748
0.296277
0.298137
0.28148
0.151275
0.0446141
0.0459134
0.117919
0.185025
0.211243
0.228022
0.264291
0.296745
0.303615
0.300414
0.290993
0.28257
0.277478
0.277474
0.280259
0.285072
0.292371
0.300809
0.302914
0.294477
0.263538
0.230101
0.214891
0.185221
0.112559
0.0431377
0.0931822
0.127542
0.134398
0.165986
0.184951
0.22617
0.258574
0.268787
0.267124
0.258259
0.249422
0.242958
0.242559
0.245349
0.251599
0.259614
0.267558
0.267809
0.256477
0.225664
0.185331
0.167753
0.133096
0.127218
0.0949553
0.150925
0.139504
0.121808
0.135792
0.155922
0.196203
0.224782
0.235542
0.235814
0.227336
0.218026
0.212082
0.210859
0.213769
0.219317
0.227705
0.234996
0.233419
0.221646
0.196551
0.155201
0.136328
0.122602
0.140373
0.15337
0.177992
0.146469
0.118138
0.121009
0.137197
0.169475
0.193768
0.204955
0.205282
0.197724
0.189684
0.183701
0.182978
0.18525
0.190973
0.198029
0.20414
0.202289
0.189506
0.168432
0.138117
0.121895
0.118907
0.14854
0.176928
0.194423
0.154551
0.116584
0.112873
0.124454
0.147451
0.167817
0.177994
0.178928
0.172114
0.164586
0.15999
0.158858
0.161393
0.16595
0.172655
0.178312
0.176024
0.164163
0.145615
0.12449
0.113769
0.117687
0.155834
0.189165
0.207838
0.164441
0.117901
0.109181
0.114546
0.130394
0.146629
0.154856
0.155204
0.149927
0.143803
0.138813
0.13828
0.139942
0.14458
0.150086
0.153969
0.151971
0.142777
0.128246
0.114928
0.109796
0.118767
0.166072
0.207732
0.226631
0.180226
0.11934
0.108108
0.107865
0.117355
0.129384
0.134938
0.135406
0.130848
0.125203
0.12164
0.120675
0.12267
0.125983
0.131186
0.134601
0.132779
0.126104
0.11474
0.106928
0.108423
0.120298
0.183467
0.223733
0.245877
0.197844
0.12062
0.106236
0.102662
0.10711
0.114505
0.11785
0.117638
0.114354
0.110112
0.106356
0.105938
0.10716
0.110768
0.114834
0.117309
0.116219
0.112098
0.105229
0.10213
0.106348
0.121439
0.198588
0.245787
0.276417
0.207502
0.123078
0.10435
0.0993242
0.0996986
0.103388
0.104509
0.104177
0.100997
0.0967427
0.0942131
0.0933335
0.0948301
0.0971722
0.100885
0.103245
0.102649
0.100694
0.0974514
0.0980457
0.104068
0.122714
0.2065
0.281353
0.325178
0.213963
0.123633
0.101635
0.0952043
0.0938446
0.0934112
0.0926825
0.0914171
0.0888517
0.0859377
0.0831366
0.082761
0.0836403
0.0863975
0.0892111
0.0910892
0.0912654
0.0913517
0.091945
0.0940759
0.101069
0.125148
0.216316
0.317662
0.344954
0.222349
0.127906
0.0992683
0.0915877
0.0880462
0.0855706
0.0834463
0.0819378
0.0794525
0.0762181
0.0744406
0.07367
0.0749476
0.0766105
0.0794748
0.0816974
0.0827137
0.0841319
0.0865384
0.0904256
0.0990562
0.127609
0.223992
0.348871
0.353254
0.2285
0.131585
0.0986281
0.0879788
0.0833128
0.0788949
0.0758556
0.0735053
0.0708696
0.0686367
0.0663887
0.0660561
0.0668291
0.068909
0.0709837
0.0730211
0.0747369
0.0774236
0.0816427
0.0863902
0.0980693
0.131017
0.228699
0.359143
0.36414
0.229703
0.138379
0.0996479
0.0847311
0.0781571
0.0733402
0.0693645
0.0669408
0.0644111
0.0615936
0.0601743
0.0594775
0.0605987
0.0618632
0.0643723
0.0668059
0.0688434
0.0719943
0.0766807
0.0833467
0.0986459
0.13722
0.233188
0.366422
0.369511
0.231876
0.149751
0.10034
0.0821657
0.0739507
0.0679178
0.0637366
0.0609199
0.0581256
0.0561753
0.0542929
0.0539382
0.0546301
0.056422
0.0582536
0.0606912
0.0631036
0.0672171
0.0727447
0.0806449
0.0993556
0.146673
0.232915
0.374281
0.36898
0.233485
0.156534
0.104711
0.0810624
0.0701899
0.0634797
0.0592075
0.0563165
0.0537976
0.0511444
0.0498717
0.049174
0.0501485
0.0513049
0.0537055
0.0562419
0.0586834
0.0624235
0.0691531
0.0795225
0.102813
0.160247
0.234027
0.375109
0.37305
0.231658
0.156292
0.107159
0.0809948
0.0673471
0.0593368
0.0548287
0.0519582
0.0491338
0.0471994
0.0455579
0.0451533
0.0457652
0.0474365
0.0492349
0.0517648
0.0544425
0.0587505
0.0663022
0.0798152
0.107438
0.161062
0.233962
0.369353
0.372555
0.22866
0.155842
0.114696
0.0818995
0.0652104
0.0560141
0.0513167
0.0483607
0.046052
0.0435475
0.0423664
0.0416743
0.0425618
0.0437288
0.0460561
0.0484619
0.0510601
0.0553277
0.0645902
0.0805942
0.115028
0.159465
0.22984
0.369447
0.369859
0.224039
0.154845
0.124705
0.0844581
0.0647746
0.0536174
0.04815
0.0451695
0.042431
0.0406181
0.0390899
0.0386946
0.0393069
0.0408508
0.0425164
0.0449534
0.0479173
0.053042
0.0637768
0.0832912
0.126446
0.157113
0.223492
0.3685
0.37016
0.218038
0.15025
0.125788
0.0880002
0.0643859
0.0519609
0.0458757
0.0424507
0.0401881
0.0378364
0.0367338
0.0361074
0.0369855
0.0380409
0.0402057
0.0425915
0.0456205
0.0516873
0.0640933
0.088182
0.127933
0.152302
0.21922
0.365693
0.369003
0.21517
0.14301
0.125011
0.0946594
0.0656276
0.0515829
0.0440109
0.0401661
0.037269
0.0356001
0.0342133
0.0338576
0.034448
0.0358561
0.0374391
0.0400315
0.0438854
0.051306
0.0651174
0.0959436
0.127422
0.142981
0.214242
0.366425
0.363562
0.212605
0.13614
0.124242
0.105992
0.0679576
0.0513633
0.0432628
0.0383865
0.0358405
0.0335121
0.032503
0.0318888
0.0326881
0.0336795
0.0358661
0.038572
0.0430881
0.0510136
0.0681464
0.108428
0.125638
0.135381
0.212912
0.363456
0.362492
0.210869
0.13029
0.120014
0.105718
0.0723974
0.0521433
0.0429887
0.0372587
0.0336167
0.0318242
0.0305233
0.030176
0.0306922
0.0320633
0.0337513
0.0371655
0.0429345
0.0524879
0.0741854
0.108474
0.121999
0.13122
0.212219
0.358929
0.354989
0.210081
0.126317
0.114456
0.105289
0.0802858
0.0535903
0.043135
0.0367438
0.0331115
0.0303293
0.0292701
0.0286544
0.0294314
0.0304582
0.0331474
0.0368541
0.043024
0.0546088
0.0833759
0.107205
0.115711
0.126701
0.209805
0.355054
0.348187
0.210111
0.124909
0.108799
0.102693
0.0872675
0.0578906
0.0438608
0.0367887
0.0315772
0.0292484
0.0277487
0.0273507
0.0278998
0.0294276
0.0317169
0.0366862
0.0438036
0.0600671
0.0883416
0.103289
0.109731
0.12466
0.20957
0.350207
0.342447
0.206415
0.122396
0.104838
0.0987991
0.0872995
0.0641205
0.0455305
0.0366894
0.0321762
0.0286245
0.0270568
0.0262869
0.027189
0.0287165
0.0323
0.0369905
0.0462193
0.0685834
0.088038
0.0980427
0.105537
0.123855
0.207318
0.340653
0.337128
0.205688
0.122622
0.100881
0.0931476
0.0860311
0.0739391
0.0496203
0.037548
0.0315669
0.0285864
0.0262884
0.025613
0.0264237
0.0286417
0.0316644
0.0379228
0.0507954
0.0737429
0.0861678
0.0924606
0.101709
0.123366
0.204634
0.337432
0.327672
0.202088
0.122408
0.0995009
0.0897056
0.0838184
0.0742991
0.0564802
0.0395473
0.0325777
0.0285707
0.0264739
0.0252924
0.0266098
0.0285672
0.032648
0.0404153
0.0577435
0.0734509
0.0826999
0.0888655
0.0996137
0.122566
0.201313
0.328025
0.321591
0.199104
0.121981
0.0975821
0.0861811
0.0798232
0.0734451
0.0641904
0.0439796
0.0328399
0.0286922
0.0262167
0.0252837
0.0263612
0.0288186
0.0331322
0.0457808
0.0644399
0.0728264
0.0790018
0.0857393
0.098403
0.122988
0.19881
0.320003
0.301324
0.191601
0.120081
0.0971765
0.0845575
0.0766726
0.0713663
0.0644767
0.0504966
0.0361466
0.0291904
0.02662
0.0253779
0.026753
0.0293618
0.0367612
0.053593
0.0644591
0.0706829
0.0760624
0.0843557
0.0975383
0.120871
0.190665
0.297993
0.274895
0.18167
0.117991
0.0951623
0.0826648
0.0741023
0.0683105
0.0636286
0.0565212
0.0401052
0.0308354
0.0267372
0.0257117
0.0268454
0.0311776
0.0406755
0.0566287
0.0636496
0.0678662
0.0737384
0.0827504
0.0958641
0.117928
0.180256
0.273
0.0849126
0.222251
0.291458
0.312585
0.318979
0.323849
0.32754
0.333226
0.338364
0.343684
0.348399
0.353799
0.359998
0.366588
0.373147
0.378832
0.384049
0.39143
0.401875
0.414117
0.426733
0.438617
0.448434
0.464738
0.490022
0.562954
0.837025
1.12192
0.975322
0.287692
0.0761981
0.231172
0.299902
0.31979
0.32493
0.328918
0.332947
0.339319
0.345405
0.351914
0.358135
0.363877
0.370059
0.376422
0.381933
0.386533
0.3912
0.396162
0.402847
0.413537
0.426916
0.437056
0.454319
0.475277
0.526157
0.720908
1.10001
1.14133
0.989438
0.280538
0.0787762
0.243338
0.306778
0.323432
0.327722
0.331963
0.336787
0.344049
0.351197
0.358717
0.36572
0.372381
0.378577
0.383996
0.38853
0.391821
0.395114
0.397603
0.402467
0.411133
0.42433
0.438113
0.458763
0.490308
0.60731
1.03008
1.17476
1.15054
0.983575
0.273782
0.0812292
0.250365
0.309169
0.324843
0.329728
0.33506
0.341041
0.349184
0.357223
0.365572
0.373317
0.380485
0.386638
0.391064
0.394518
0.397013
0.398809
0.400492
0.404306
0.412128
0.424371
0.442027
0.465971
0.535113
0.847584
1.16807
1.20699
1.15838
0.966836
0.274927
0.0819754
0.252535
0.311062
0.326682
0.332689
0.339052
0.34609
0.355092
0.363873
0.373016
0.381616
0.388987
0.395158
0.398855
0.401232
0.402695
0.40382
0.405043
0.408216
0.415695
0.428093
0.447794
0.488416
0.659487
1.10547
1.21736
1.22145
1.14671
0.936065
0.277303
0.0825928
0.25472
0.313125
0.329326
0.336634
0.343917
0.351982
0.361544
0.370996
0.381244
0.390575
0.39766
0.403477
0.406757
0.408798
0.40961
0.409877
0.410502
0.413335
0.420666
0.433424
0.460379
0.555345
0.975512
1.20088
1.23757
1.21859
1.12179
0.903822
0.28014
0.083352
0.257325
0.315614
0.332781
0.341422
0.349859
0.358866
0.368863
0.378861
0.389598
0.398824
0.405707
0.411135
0.414611
0.415539
0.416118
0.416681
0.41796
0.420245
0.426332
0.441275
0.495044
0.756278
1.14505
1.2284
1.23998
1.19565
1.08907
0.866853
0.281953
0.0842345
0.260503
0.31884
0.337298
0.347244
0.356973
0.366659
0.376634
0.386661
0.396015
0.404933
0.412164
0.417501
0.420911
0.42178
0.421903
0.423009
0.424687
0.425813
0.432192
0.458751
0.590092
1.04265
1.20114
1.23423
1.22205
1.16391
1.05603
0.829341
0.281783
0.0850575
0.264142
0.322901
0.342735
0.35387
0.364041
0.373771
0.38328
0.392288
0.400846
0.409087
0.416198
0.421315
0.425273
0.426718
0.426754
0.427504
0.428407
0.430106
0.44032
0.503279
0.840872
1.1476
1.20824
1.21718
1.1896
1.13336
1.02196
0.7911
0.280042
0.0858005
0.268484
0.327905
0.34863
0.360108
0.369744
0.378852
0.387397
0.395164
0.402739
0.410272
0.416961
0.422291
0.426495
0.429012
0.428816
0.428603
0.429247
0.432621
0.459216
0.623331
1.04814
1.16574
1.19238
1.18767
1.15227
1.09939
0.984194
0.751248
0.277448
0.086655
0.274049
0.333871
0.3543
0.364795
0.373226
0.380836
0.387839
0.393956
0.400304
0.407088
0.413457
0.419121
0.423571
0.426378
0.426068
0.425504
0.426559
0.436729
0.505622
0.872501
1.10542
1.15097
1.15774
1.1465
1.11457
1.06119
0.942591
0.709398
0.273411
0.0876209
0.281135
0.340344
0.359108
0.367298
0.373248
0.378329
0.382869
0.387181
0.392198
0.398414
0.404375
0.410026
0.414676
0.417776
0.417645
0.417134
0.421856
0.449657
0.629123
1.00733
1.09327
1.11368
1.11531
1.09896
1.07171
1.01799
0.896443
0.667304
0.267967
0.0891213
0.289457
0.346422
0.361608
0.366062
0.368244
0.369471
0.371622
0.374418
0.377652
0.382662
0.38825
0.393891
0.398854
0.402621
0.402936
0.404986
0.416129
0.483993
0.837485
1.02461
1.05625
1.06316
1.0637
1.04818
1.02258
0.968796
0.846977
0.625695
0.261895
0.0911451
0.298312
0.350657
0.359609
0.358642
0.356539
0.353891
0.353108
0.353487
0.355432
0.359033
0.363792
0.369223
0.37516
0.380174
0.382417
0.38836
0.415606
0.584162
0.91492
0.985961
1.00023
1.00664
1.0043
0.992555
0.968968
0.915597
0.795731
0.58535
0.255429
0.093751
0.306336
0.350574
0.350208
0.342509
0.336541
0.330042
0.325837
0.323943
0.324852
0.327723
0.332239
0.338142
0.344981
0.350732
0.355584
0.369429
0.431021
0.730661
0.913628
0.930487
0.936384
0.943488
0.940247
0.933772
0.91253
0.860378
0.744266
0.546695
0.248609
0.0966489
0.311083
0.34283
0.331635
0.316709
0.30603
0.296353
0.290307
0.287216
0.2879
0.290162
0.294657
0.300871
0.308118
0.314829
0.325869
0.354037
0.506085
0.818252
0.878183
0.870063
0.870973
0.874734
0.875264
0.872547
0.854347
0.804302
0.693945
0.510389
0.241654
0.0999286
0.309225
0.325015
0.303378
0.282167
0.26765
0.255947
0.249411
0.24624
0.246804
0.248283
0.252692
0.259065
0.26793
0.279002
0.296132
0.357204
0.652324
0.808939
0.813934
0.801445
0.801381
0.804373
0.811249
0.810567
0.795679
0.748495
0.645231
0.476572
0.234674
0.103227
0.298571
0.297129
0.266726
0.24145
0.225227
0.213027
0.206994
0.204443
0.204819
0.20674
0.212457
0.220266
0.23081
0.244011
0.275416
0.441051
0.686664
0.752391
0.738591
0.73053
0.729685
0.738277
0.747294
0.750487
0.738723
0.694602
0.598831
0.444954
0.227649
0.105892
0.278168
0.260227
0.223989
0.198143
0.183086
0.172179
0.166323
0.164966
0.167938
0.171156
0.177689
0.186637
0.198572
0.218316
0.30184
0.536584
0.638688
0.675249
0.66529
0.658454
0.663121
0.675365
0.686963
0.692738
0.683574
0.642652
0.554801
0.415438
0.220404
0.109595
0.25136
0.220933
0.183332
0.160802
0.148075
0.137884
0.134118
0.135258
0.139991
0.145371
0.154398
0.166116
0.182542
0.23351
0.400059
0.504819
0.567302
0.598358
0.594843
0.58949
0.602147
0.615925
0.63024
0.638115
0.6309
0.593006
0.513288
0.38802
0.213108
0.110207
0.221092
0.179241
0.145371
0.129334
0.120061
0.114709
0.114298
0.119969
0.128616
0.140234
0.158566
0.183794
0.221946
0.309662
0.385773
0.445372
0.49884
0.530199
0.524315
0.529844
0.544107
0.561516
0.577703
0.587268
0.581818
0.547009
0.474858
0.362683
0.205848
0.116404
0.197844
0.149868
0.122615
0.112812
0.106753
0.104648
0.111902
0.127889
0.154604
0.189088
0.215633
0.230796
0.257061
0.308958
0.349613
0.389009
0.437218
0.464808
0.461959
0.476771
0.492126
0.511746
0.529682
0.540808
0.536743
0.50522
0.439961
0.339529
0.198655
0.114519
0.168634
0.117001
0.106093
0.103708
0.103596
0.109961
0.142874
0.195008
0.221569
0.23242
0.236603
0.241851
0.262265
0.288011
0.305217
0.336533
0.378125
0.405784
0.410879
0.427765
0.446604
0.468055
0.486847
0.498573
0.495011
0.467615
0.408662
0.318678
0.191815
0.140961
0.156445
0.106398
0.100527
0.101408
0.10908
0.152343
0.218895
0.237878
0.241635
0.236224
0.231361
0.23477
0.243482
0.258319
0.268095
0.292863
0.325907
0.354584
0.366062
0.385556
0.406766
0.429313
0.448638
0.460695
0.457344
0.433293
0.380354
0.299976
0.185393
0.106088
0.0864998
0.0703147
0.0900219
0.099755
0.136826
0.209852
0.238073
0.240871
0.234677
0.216121
0.202621
0.206759
0.212981
0.223225
0.231723
0.254636
0.28152
0.309365
0.325513
0.347933
0.371536
0.394776
0.414299
0.426204
0.423773
0.40237
0.354919
0.283075
0.17928
0.287751
0.975695
1.12195
0.835827
0.562497
0.489769
0.464565
0.448177
0.438272
0.426556
0.413968
0.401742
0.39142
0.3841
0.379165
0.373184
0.366634
0.360046
0.35394
0.348691
0.34445
0.339104
0.334035
0.328271
0.324578
0.319564
0.313067
0.291814
0.222453
0.0849488
0.280602
0.990584
1.14255
1.10044
0.720669
0.52601
0.475092
0.454155
0.436823
0.426677
0.41317
0.402566
0.396053
0.391382
0.386904
0.382459
0.376834
0.37051
0.364666
0.359268
0.353382
0.346704
0.340447
0.334067
0.330019
0.326092
0.320823
0.300717
0.231713
0.0763409
0.274028
0.985199
1.15245
1.17606
1.03066
0.607446
0.490279
0.458665
0.437942
0.424027
0.41105
0.40238
0.397877
0.395504
0.392391
0.389413
0.385011
0.379793
0.373976
0.367472
0.3603
0.352735
0.345387
0.338086
0.333282
0.329065
0.324799
0.308006
0.244298
0.0789854
0.275209
0.968992
1.16066
1.20881
1.16924
0.848554
0.535289
0.465963
0.441929
0.424295
0.412195
0.404396
0.400893
0.399354
0.397784
0.395657
0.392615
0.388612
0.382804
0.375556
0.367472
0.358827
0.350686
0.342496
0.336499
0.331229
0.326354
0.310647
0.251475
0.0815475
0.277639
0.938422
1.149
1.22353
1.21891
1.10656
0.660051
0.488488
0.447759
0.428144
0.415865
0.408479
0.405525
0.404459
0.403684
0.402829
0.400896
0.397709
0.39176
0.384252
0.375098
0.365646
0.356778
0.347728
0.34067
0.334323
0.328307
0.312531
0.253675
0.0822538
0.280399
0.90593
1.1239
1.22056
1.23937
1.20216
0.976815
0.555686
0.460507
0.433534
0.420905
0.413685
0.411304
0.410942
0.411014
0.410487
0.409228
0.406363
0.400562
0.393393
0.383357
0.372905
0.363375
0.353768
0.345732
0.338414
0.331005
0.314597
0.255829
0.0828974
0.282107
0.868401
1.0907
1.19738
1.24158
1.2298
1.14631
0.757477
0.495397
0.441528
0.426875
0.420967
0.419175
0.418067
0.418016
0.417967
0.417486
0.41414
0.408432
0.400727
0.391358
0.380906
0.370897
0.360804
0.35179
0.343319
0.334535
0.317065
0.258414
0.0837698
0.281841
0.830326
1.05703
1.16518
1.22341
1.23562
1.20234
1.04386
0.590857
0.459241
0.432792
0.427015
0.426312
0.424847
0.424183
0.424889
0.424224
0.420195
0.414493
0.406832
0.39794
0.388751
0.378948
0.36886
0.359036
0.349219
0.3391
0.32027
0.261486
0.0845434
0.279988
0.791602
1.02245
1.13402
1.19066
1.21845
1.20958
1.14908
0.842518
0.504224
0.441408
0.431957
0.430416
0.430167
0.429805
0.430061
0.428447
0.424014
0.418333
0.410885
0.40277
0.394422
0.385675
0.376326
0.366414
0.355937
0.344591
0.324364
0.265173
0.0854263
0.277317
0.751443
0.984326
1.09968
1.15298
1.18894
1.19383
1.1674
1.05035
0.625178
0.460858
0.435205
0.431923
0.43171
0.432787
0.432718
0.429624
0.425114
0.419131
0.411982
0.404595
0.397323
0.389703
0.381242
0.372142
0.362293
0.350539
0.32941
0.269607
0.0861898
0.273261
0.709449
0.942569
1.06131
1.11515
1.14778
1.15979
1.153
1.10808
0.875721
0.507911
0.439293
0.429724
0.429312
0.430562
0.430119
0.42637
0.421684
0.415487
0.408525
0.401917
0.395963
0.389854
0.382808
0.375202
0.36675
0.356216
0.335416
0.275347
0.0870635
0.2678
0.66725
0.896467
1.01812
1.07239
1.10047
1.11801
1.11637
1.09621
1.01032
0.632377
0.452947
0.425583
0.421813
0.422281
0.421372
0.417104
0.412215
0.406054
0.399563
0.393656
0.388917
0.384346
0.379708
0.374607
0.368653
0.360639
0.341978
0.282645
0.0881857
0.261701
0.625649
0.847116
0.969104
1.02355
1.05019
1.06703
1.06693
1.05978
1.02869
0.841289
0.487991
0.420278
0.408907
0.407234
0.405799
0.400835
0.395614
0.389442
0.383433
0.378427
0.375164
0.372183
0.369946
0.368839
0.366652
0.362561
0.347832
0.29099
0.0897236
0.255224
0.585353
0.795875
0.916075
0.970159
0.995019
1.008
1.01175
1.00526
0.992002
0.921825
0.589798
0.419855
0.391441
0.384919
0.381645
0.375737
0.369997
0.364025
0.359029
0.355075
0.353101
0.352676
0.353351
0.356101
0.358432
0.35986
0.35162
0.299749
0.0917606
0.248419
0.54685
0.74454
0.860986
0.913997
0.936577
0.944308
0.949377
0.943653
0.938138
0.92242
0.741335
0.435458
0.371749
0.356154
0.350582
0.344591
0.337944
0.331652
0.327021
0.323849
0.322515
0.32415
0.328686
0.335145
0.341678
0.349834
0.350912
0.307511
0.0943154
0.241512
0.510599
0.694315
0.805496
0.856135
0.87545
0.879409
0.880593
0.879021
0.877223
0.886605
0.826489
0.512638
0.355557
0.325662
0.313845
0.306388
0.299575
0.293233
0.288842
0.286211
0.285263
0.288055
0.294543
0.304709
0.315545
0.330745
0.342612
0.311828
0.0971255
0.234634
0.476966
0.645944
0.75007
0.797785
0.813508
0.815434
0.80982
0.808751
0.808506
0.820391
0.812052
0.657156
0.358514
0.295611
0.277963
0.266894
0.258014
0.250807
0.246487
0.244711
0.24402
0.246854
0.253862
0.266254
0.281043
0.30224
0.324562
0.309614
0.100288
0.227729
0.445708
0.59998
0.696513
0.74103
0.753561
0.751468
0.743039
0.735514
0.737403
0.744159
0.754171
0.688286
0.444388
0.275966
0.243389
0.229866
0.219668
0.211291
0.205893
0.203422
0.202314
0.204494
0.210845
0.223665
0.240122
0.265366
0.296243
0.298571
0.103542
0.220598
0.416383
0.556251
0.644966
0.686093
0.695716
0.690576
0.679969
0.667723
0.663991
0.670165
0.676479
0.638106
0.536595
0.306358
0.218979
0.198557
0.186754
0.17717
0.171063
0.167606
0.16415
0.165178
0.169953
0.181696
0.196776
0.2228
0.25947
0.277894
0.10619
0.213349
0.388899
0.514718
0.595507
0.633542
0.641046
0.633574
0.619742
0.60643
0.593552
0.598765
0.599384
0.565704
0.50211
0.400336
0.239081
0.185107
0.1678
0.154932
0.146219
0.140463
0.135643
0.133846
0.136585
0.145864
0.159613
0.182301
0.220195
0.251004
0.109879
0.206161
0.363609
0.476239
0.549243
0.584095
0.58971
0.58051
0.564803
0.548391
0.534004
0.526378
0.530895
0.497154
0.442218
0.382861
0.309386
0.23007
0.192661
0.165648
0.143514
0.129819
0.12034
0.114906
0.114564
0.119327
0.128274
0.144075
0.178058
0.220524
0.110506
0.198993
0.340381
0.441153
0.507022
0.538798
0.542926
0.532135
0.514435
0.495046
0.480241
0.463656
0.46536
0.434824
0.385431
0.346673
0.306629
0.256908
0.234607
0.22112
0.200706
0.164596
0.131274
0.112982
0.105262
0.107249
0.112997
0.12227
0.148616
0.197618
0.117052
0.192097
0.319387
0.409701
0.469099
0.496967
0.500353
0.488782
0.470113
0.449043
0.430266
0.411818
0.405781
0.375159
0.333224
0.302658
0.285202
0.260172
0.243939
0.23818
0.236613
0.228381
0.205865
0.152463
0.112177
0.10387
0.103679
0.105982
0.116509
0.167712
0.115111
0.185599
0.300478
0.381228
0.43461
0.458679
0.461831
0.449825
0.430543
0.408337
0.387628
0.365618
0.354411
0.323046
0.289699
0.265713
0.256087
0.238999
0.233879
0.229766
0.236517
0.244387
0.242722
0.226334
0.165376
0.111101
0.100457
0.099507
0.106014
0.155826
0.14189
0.179469
0.283473
0.355634
0.403359
0.424702
0.427225
0.415177
0.395479
0.372316
0.349237
0.325199
0.307745
0.278851
0.251617
0.229213
0.2208
0.208895
0.20441
0.199979
0.213107
0.233029
0.241721
0.241482
0.215747
0.148326
0.100915
0.0897562
0.0705848
0.0864078
0.105989
0.056285
0.0564221
0.0565606
0.0566991
0.0568376
0.0569763
0.057115
0.0572539
0.0573928
0.0575318
0.057671
0.0578102
0.0579495
0.058089
0.0582285
0.0583686
0.0585596
0.0612699
0.132942
0.36875
0.651162
0.81248
0.878156
0.929033
0.999931
1.10681
1.2217
1.34771
1.46714
1.54659
1.55985
1.53941
1.51854
1.49076
1.45192
1.41979
1.38743
1.3645
1.35067
1.33697
1.32401
1.30623
1.28092
1.25428
1.22849
1.20453
1.17535
1.13773
1.09229
1.03995
0.975694
0.902105
0.826748
0.755074
0.688287
0.627039
0.572987
0.526279
0.485595
0.450608
0.420194
0.393335
0.368916
0.34639
0.325583
0.306489
0.288774
0.272552
0.257933
0.244659
0.232741
0.222034
0.212346
0.203526
0.19551
0.188107
0.181243
0.174948
0.169187
0.163731
0.158562
0.153782
0.149497
0.145773
0.142577
0.139815
0.137398
0.135328
0.133545
0.131992
0.130575
0.129222
0.127909
0.126631
0.125414
0.124295
0.123315
0.122505
0.121882
0.121439
0.121152
0.121002
0.120993
0.121145
0.121493
0.122041
0.122756
0.123653
0.124721
0.125884
0.127203
0.128765
0.130528
0.132358
0.134282
0.136395
0.138895
0.142005
0.145513
0.148987
0.152984
0.15748
0.16245
0.167867
0.17366
0.199548
0.199795
0.200014
0.200227
0.200437
0.200647
0.200856
0.201064
0.201273
0.20148
0.201688
0.201895
0.202101
0.202308
0.202513
0.20272
0.202956
0.179749
0.0751918
0.279145
0.622923
0.810053
0.896794
1.04149
1.22174
1.39421
1.60619
1.8263
1.89755
1.88488
1.85473
1.82655
1.80333
1.77274
1.73124
1.69621
1.67042
1.65471
1.64618
1.64146
1.64306
1.64764
1.65081
1.65058
1.64777
1.64544
1.64064
1.62874
1.60168
1.54825
1.46731
1.37093
1.26572
1.16051
1.05602
0.957791
0.867783
0.786679
0.71542
0.654297
0.601598
0.556506
0.517241
0.482554
0.451844
0.424346
0.399336
0.376566
0.356038
0.33766
0.321445
0.307004
0.294006
0.282108
0.27121
0.261185
0.251762
0.243038
0.234881
0.227094
0.219829
0.212991
0.20689
0.201548
0.196819
0.192651
0.188898
0.185567
0.182678
0.180179
0.177929
0.175787
0.173782
0.171893
0.170094
0.168444
0.167022
0.165861
0.165014
0.164468
0.164137
0.163958
0.163923
0.16409
0.164517
0.165222
0.166155
0.167333
0.168726
0.170288
0.172205
0.174582
0.177219
0.180017
0.183145
0.186886
0.191645
0.197774
0.204283
0.211404
0.219863
0.229661
0.240916
0.253705
0.268009
0.259543
0.259698
0.259837
0.25997
0.260102
0.260232
0.260362
0.260491
0.26062
0.260748
0.260875
0.261002
0.261128
0.261254
0.261379
0.261504
0.261643
0.25574
0.0797257
0.215942
0.597988
0.821632
0.899307
1.004
1.10579
1.27801
1.52234
1.70673
1.78956
1.8027
1.77628
1.77638
1.80092
1.83483
1.84963
1.84485
1.83876
1.82058
1.79407
1.7772
1.77259
1.77721
1.77911
1.80525
1.83681
1.87226
1.90058
1.91147
1.89527
1.87125
1.82056
1.74892
1.65275
1.5301
1.38359
1.2293
1.10295
0.990923
0.893482
0.807902
0.735348
0.674389
0.622291
0.578137
0.539337
0.504826
0.47386
0.446259
0.421877
0.400083
0.380647
0.363011
0.346827
0.331974
0.318436
0.306018
0.294386
0.28359
0.27357
0.264146
0.255351
0.247308
0.240137
0.233698
0.227931
0.222885
0.218461
0.214575
0.211047
0.207729
0.204678
0.201765
0.199052
0.196539
0.194221
0.192158
0.190398
0.188993
0.187989
0.187375
0.187109
0.187063
0.187198
0.187543
0.188138
0.189019
0.190126
0.191506
0.193173
0.195131
0.197611
0.200651
0.204098
0.207854
0.212202
0.217495
0.224105
0.232453
0.241328
0.251434
0.263458
0.277478
0.293606
0.311883
0.332639
0.279906
0.27997
0.280026
0.280079
0.280131
0.280183
0.280235
0.280285
0.280336
0.280386
0.280436
0.280485
0.280534
0.280582
0.28063
0.280678
0.280734
0.280279
0.147781
0.145717
0.487205
0.787136
0.959907
1.11991
1.33284
1.53461
1.6438
1.691
1.72159
1.72727
1.75867
1.78376
1.81598
1.862
1.90016
1.92323
1.9225
1.89842
1.86852
1.84517
1.8367
1.8396
1.85475
1.87654
1.88959
1.87516
1.81243
1.69492
1.58277
1.52572
1.4723
1.41486
1.38362
1.35864
1.35247
1.30714
1.22483
1.13697
1.03734
0.935763
0.844072
0.767328
0.705385
0.654149
0.611555
0.573488
0.538557
0.50665
0.478023
0.453579
0.432939
0.413533
0.394792
0.377417
0.361508
0.346653
0.332659
0.319915
0.308394
0.297715
0.287528
0.278009
0.269455
0.261962
0.255275
0.249338
0.243951
0.239084
0.234633