/*--------------------------------*- C++ -*----------------------------------*\
| =========                 |                                                 |
| \\      /  F ield         | OpenFOAM: The Open Source CFD Toolbox           |
|  \\    /   O peration     | Version:  2112                                  |
|   \\  /    A nd           | Website:  www.openfoam.com                      |
|    \\/     M anipulation  |                                                 |
\*---------------------------------------------------------------------------*/
FoamFile
{
    version     2.0;
    format      ascii;
    arch        "LSB;label=32;scalar=64";
    class       volScalarField;
    location    "0.00567";
    object      p;
}
// * * * * * * * * * * * * * * * * * * * * * * * * * * * * * * * * * * * * * //

dimensions      [1 -1 -2 0 0 0 0];

internalField   nonuniform List<scalar> 
13875
(
951599
984304
973575
975900
973653
974567
975040
974607
975140
975173
974993
974993
974710
974796
974831
974679
974635
975369
975195
974006
973398
975622
972340
982745
945646
733799
659574
672177
677184
669209
669651
677265
678803
679148
678924
678835
678480
670274
669179
670410
677999
679273
679303
677558
669941
669550
676883
672214
657308
730914
736888
635518
664281
653609
649195
647987
648182
649413
649503
648328
647062
648946
645378
645312
645245
648867
646231
648673
648112
647816
648604
652146
661913
632217
733579
743531
636161
665164
653769
649503
648161
647127
646556
645536
644410
643567
644490
645413
645416
645275
644620
643625
644963
646387
647978
648890
652271
662662
632821
739127
757361
639167
667716
654480
650363
648650
647286
646621
645583
644463
643624
644525
645544
645688
645400
644653
643727
645033
646512
648430
649679
652864
664948
635459
750057
759038
647822
673482
656455
652167
649674
647775
646850
645757
644658
643832
644654
645819
646232
645670
644786
644022
645281
646925
649373
651366
654738
670534
643186
751652
765037
668327
685709
661375
655828
651744
648844
647421
646193
645114
644371
645029
646405
646836
646191
645108
644678
645983
648023
651436
655015
660347
682081
665865
755766
791203
718352
711635
674727
663616
656177
651240
648838
647296
646213
645539
645875
647552
648054
647297
645957
646019
647494
650302
655553
662405
673153
707105
715354
781801
908605
827897
766515
704401
679165
664919
656187
651962
649774
648607
647939
647833
649872
650515
649607
648041
648759
650702
654983
663655
677079
700927
760259
823172
909771
1.52406e+06
1.02947e+06
833641
739532
697803
675707
663330
657406
654603
653356
652697
652197
654517
655371
654429
652807
653967
656468
662160
674327
695970
736835
829421
1.02535e+06
1.51733e+06
2.90552e+06
1.39267e+06
957452
796952
726925
693009
676288
668201
664466
662882
662061
661209
663428
664630
664032
662825
664144
667385
674695
690412
722703
789315
940783
1.35102e+06
2.86045e+06
5.60426e+06
2.34531e+06
1.28742e+06
938553
792457
731283
704237
691482
685569
682913
681459
680434
681960
683493
683785
683990
685900
691045
702805
728576
787782
926207
1.25173e+06
2.27372e+06
5.57294e+06
5.39002e+06
4.84596e+06
2.31202e+06
1.40407e+06
987231
836212
773931
747571
735384
729567
726534
725227
725434
727048
728982
731932
737110
748411
774091
837530
991612
1.38535e+06
2.18177e+06
4.87638e+06
5.34115e+06
4.84187e+06
4.65331e+06
4.7155e+06
3.99311e+06
1.66498e+06
1.16177e+06
977221
905192
872657
856044
847986
844450
843154
844955
849488
858849
876632
911848
989087
1.20722e+06
1.84762e+06
4.0362e+06
4.69017e+06
4.71529e+06
4.76143e+06
4.02672e+06
4.13006e+06
4.52217e+06
4.33389e+06
4.08723e+06
2.62134e+06
1.74647e+06
1.45848e+06
1.34235e+06
1.28498e+06
1.26065e+06
1.25051e+06
1.24731e+06
1.24924e+06
1.25781e+06
1.28054e+06
1.33373e+06
1.45078e+06
1.72983e+06
2.62887e+06
4.16687e+06
4.28278e+06
4.52804e+06
4.2802e+06
4.2582e+06
3.55161e+06
3.50231e+06
3.98331e+06
4.15898e+06
4.43895e+06
4.52782e+06
3.92191e+06
3.30285e+06
3.10532e+06
2.9134e+06
2.82235e+06
2.76809e+06
2.75074e+06
2.75709e+06
2.79045e+06
2.8893e+06
3.04809e+06
3.27414e+06
3.83225e+06
4.57902e+06
4.40595e+06
4.14043e+06
4.0878e+06
3.58988e+06
3.75695e+06
2.59156e+06
2.73806e+06
3.1628e+06
3.66413e+06
4.42694e+06
5.36378e+06
7.19565e+06
8.19043e+06
8.8087e+06
8.89071e+06
9.05784e+06
9.05967e+06
9.10391e+06
9.07687e+06
9.04515e+06
8.94055e+06
8.76319e+06
8.37478e+06
7.47896e+06
5.558e+06
4.50709e+06
3.68636e+06
3.18131e+06
2.83139e+06
2.72274e+06
1.50598e+06
1.81915e+06
2.46974e+06
3.32526e+06
4.51118e+06
5.95362e+06
7.18409e+06
7.71252e+06
7.74561e+06
7.70046e+06
7.59283e+06
7.52165e+06
7.50213e+06
7.52494e+06
7.60985e+06
7.77285e+06
7.89315e+06
7.82394e+06
7.3563e+06
5.99583e+06
4.61982e+06
3.39899e+06
2.33067e+06
1.69637e+06
1.39192e+06
719565
1.07235e+06
1.81342e+06
3.05896e+06
4.55324e+06
5.46377e+06
5.99207e+06
6.14888e+06
6.05944e+06
6.04839e+06
6.07075e+06
6.10633e+06
6.12699e+06
6.12521e+06
6.09957e+06
6.0851e+06
6.12268e+06
6.1838e+06
6.14e+06
5.63819e+06
4.70449e+06
3.1879e+06
1.83627e+06
1.08172e+06
722129
394818
657019
1.27716e+06
2.66535e+06
3.96502e+06
4.36061e+06
4.58432e+06
4.84657e+06
5.03323e+06
5.20176e+06
5.33563e+06
5.41202e+06
5.4336e+06
5.42053e+06
5.34307e+06
5.20271e+06
5.02418e+06
4.81557e+06
4.56683e+06
4.37548e+06
4.03023e+06
2.74087e+06
1.32002e+06
668166
393956
905855
941370
1.2605e+06
2.0893e+06
2.96849e+06
3.30342e+06
3.60325e+06
3.98665e+06
4.31169e+06
4.55778e+06
4.71418e+06
4.78973e+06
4.8087e+06
4.78716e+06
4.70234e+06
4.53006e+06
4.26678e+06
3.91582e+06
3.52504e+06
3.26402e+06
2.95665e+06
2.06879e+06
1.2657e+06
977622
938398
1.05694e+06
1.01739e+06
1.24144e+06
1.64599e+06
2.203e+06
2.51633e+06
2.94238e+06
3.37665e+06
3.72304e+06
3.96173e+06
4.10784e+06
4.17933e+06
4.19864e+06
4.17154e+06
4.08837e+06
3.92466e+06
3.67134e+06
3.31433e+06
2.85412e+06
2.44927e+06
2.18286e+06
1.59463e+06
1.22705e+06
1.05237e+06
1.08528e+06
1.11057e+06
1.02491e+06
1.19365e+06
1.34572e+06
1.71181e+06
2.00782e+06
2.48759e+06
2.90281e+06
3.21078e+06
3.42518e+06
3.55495e+06
3.62219e+06
3.63991e+06
3.6119e+06
3.53223e+06
3.38443e+06
3.15953e+06
2.85676e+06
2.42823e+06
1.93657e+06
1.68476e+06
1.3156e+06
1.16752e+06
1.04839e+06
1.09128e+06
1.26159e+06
1.08913e+06
1.1258e+06
1.17842e+06
1.44349e+06
1.71822e+06
2.12678e+06
2.48808e+06
2.76001e+06
2.94936e+06
3.06356e+06
3.12682e+06
3.14365e+06
3.11664e+06
3.04345e+06
2.91101e+06
2.71304e+06
2.44357e+06
2.08218e+06
1.66389e+06
1.4112e+06
1.14664e+06
1.07404e+06
1.06531e+06
1.19464e+06
1.3367e+06
1.15792e+06
1.11419e+06
1.1101e+06
1.28949e+06
1.52387e+06
1.83662e+06
2.13282e+06
2.36787e+06
2.53723e+06
2.64557e+06
2.70283e+06
2.71821e+06
2.69449e+06
2.62889e+06
2.5142e+06
2.3361e+06
2.09704e+06
1.80775e+06
1.47721e+06
1.25532e+06
1.07382e+06
1.07469e+06
1.10346e+06
1.32626e+06
1.43897e+06
1.22341e+06
1.1175e+06
1.09088e+06
1.19249e+06
1.36715e+06
1.6087e+06
1.8448e+06
2.04419e+06
2.19117e+06
2.28933e+06
2.33782e+06
2.35399e+06
2.33056e+06
2.27382e+06
2.16992e+06
2.01851e+06
1.81378e+06
1.58487e+06
1.34104e+06
1.16501e+06
1.05743e+06
1.07878e+06
1.15758e+06
1.38579e+06
1.5009e+06
1.29388e+06
1.12562e+06
1.08915e+06
1.12906e+06
1.25151e+06
1.42429e+06
1.60963e+06
1.7757e+06
1.90078e+06
1.98635e+06
2.03049e+06
2.04427e+06
2.02468e+06
1.97222e+06
1.88344e+06
1.75484e+06
1.58363e+06
1.40222e+06
1.22358e+06
1.09902e+06
1.05213e+06
1.09106e+06
1.25499e+06
1.4451e+06
1.54649e+06
1.38631e+06
1.14428e+06
1.08513e+06
1.0843e+06
1.1491e+06
1.2731e+06
1.41923e+06
1.55196e+06
1.65443e+06
1.72779e+06
1.76656e+06
1.78173e+06
1.76384e+06
1.72108e+06
1.64549e+06
1.54086e+06
1.40134e+06
1.25543e+06
1.13081e+06
1.05698e+06
1.05214e+06
1.10981e+06
1.36388e+06
1.52937e+06
1.64141e+06
1.5336e+06
1.17471e+06
1.07367e+06
1.04813e+06
1.06979e+06
1.151e+06
1.26157e+06
1.36848e+06
1.45306e+06
1.5134e+06
1.54818e+06
1.55976e+06
1.54568e+06
1.50733e+06
1.44306e+06
1.3555e+06
1.24663e+06
1.1355e+06
1.05037e+06
1.02617e+06
1.04702e+06
1.13098e+06
1.42721e+06
1.58565e+06
1.74175e+06
1.62913e+06
1.19855e+06
1.05866e+06
1.01705e+06
1.01412e+06
1.05561e+06
1.13619e+06
1.21555e+06
1.28268e+06
1.33303e+06
1.3609e+06
1.37197e+06
1.35713e+06
1.32673e+06
1.27457e+06
1.2052e+06
1.12008e+06
1.03894e+06
994094
995612
1.0352e+06
1.17044e+06
1.55294e+06
1.68426e+06
1.7701e+06
1.70545e+06
1.24215e+06
1.04457e+06
973767
960921
975629
1.02547e+06
1.0854e+06
1.13933e+06
1.18045e+06
1.20491e+06
1.21248e+06
1.20306e+06
1.17704e+06
1.13393e+06
1.07848e+06
1.01652e+06
962172
945263
957587
1.02529e+06
1.21574e+06
1.72235e+06
1.79305e+06
1.80066e+06
1.75567e+06
1.28511e+06
1.0413e+06
942061
913955
910985
942189
983234
1.02256e+06
1.05245e+06
1.07028e+06
1.0776e+06
1.0692e+06
1.04952e+06
1.01665e+06
974008
932429
899720
901639
926001
1.02307e+06
1.25971e+06
1.77369e+06
1.80855e+06
1.8127e+06
1.75476e+06
1.32692e+06
1.04252e+06
911694
863990
853902
865246
893917
923703
946139
959913
964282
958707
942669
918485
887205
857475
841460
851304
898549
1.02538e+06
1.31914e+06
1.77407e+06
1.81969e+06
1.81112e+06
1.75139e+06
1.41124e+06
1.05144e+06
888701
825057
806810
806519
819901
837090
853128
863325
867381
862527
851196
834686
814853
799355
800101
815488
874077
1.03114e+06
1.40548e+06
1.7616e+06
1.81913e+06
1.80732e+06
1.74455e+06
1.55856e+06
1.07775e+06
874677
789432
757041
749288
755147
765839
777049
784333
786296
783355
775127
762618
749624
741796
747942
779091
859036
1.04893e+06
1.51346e+06
1.74156e+06
1.81391e+06
1.79717e+06
1.71765e+06
1.57637e+06
1.10545e+06
875187
762794
719115
706101
702525
702269
709092
714058
715860
712928
706983
699775
696665
699039
710770
750494
859305
1.08604e+06
1.56502e+06
1.70173e+06
1.80002e+06
1.77596e+06
1.66308e+06
1.57334e+06
1.16405e+06
882085
738460
678930
656688
650445
649777
654315
656511
656897
655685
652741
647358
647649
652563
672482
729569
863311
1.1311e+06
1.56168e+06
1.63491e+06
1.76781e+06
1.73302e+06
1.59498e+06
1.56567e+06
1.28034e+06
902818
729544
653436
622991
608874
602586
603666
604641
604930
603999
602244
601286
605491
617456
644996
716949
876881
1.22029e+06
1.55412e+06
1.5728e+06
1.70332e+06
1.68504e+06
1.54484e+06
1.5376e+06
1.38798e+06
930034
730542
628639
585142
568303
563687
562950
562489
561713
561939
561895
561851
565608
581229
621360
718126
911337
1.40339e+06
1.5369e+06
1.52913e+06
1.63476e+06
1.62395e+06
1.50632e+06
1.48094e+06
1.38684e+06
987932
738976
618221
562837
538376
527122
524219
523150
522657
522756
523393
526355
536126
558858
608708
723015
955490
1.40112e+06
1.49566e+06
1.49805e+06
1.59098e+06
1.56026e+06
1.46848e+06
1.39528e+06
1.37921e+06
1.10407e+06
762005
618541
541023
508263
497366
493662
491414
489790
490733
492808
495941
506033
536651
608802
739836
1.04342e+06
1.39065e+06
1.41273e+06
1.46587e+06
1.54673e+06
1.51944e+06
1.43756e+06
1.32446e+06
1.35227e+06
1.22446e+06
795707
622194
533595
491388
470881
463690
460926
460045
460339
462551
469736
488347
528695
614020
780255
1.22592e+06
1.36546e+06
1.33329e+06
1.42911e+06
1.50252e+06
1.47439e+06
1.41033e+06
1.27264e+06
1.29695e+06
1.22112e+06
868268
636774
534320
473279
449749
440935
436541
434529
436035
440091
448396
471786
529045
623128
843265
1.2239e+06
1.30943e+06
1.26856e+06
1.40296e+06
1.4724e+06
1.43023e+06
1.38009e+06
1.23553e+06
1.22529e+06
1.20666e+06
1.01625e+06
668932
539597
469361
434225
418697
413018
411533
412624
417644
432413
466509
532244
644676
971508
1.2093e+06
1.22306e+06
1.22174e+06
1.38263e+06
1.43761e+06
1.39811e+06
1.34612e+06
1.20435e+06
1.16593e+06
1.16811e+06
1.04668e+06
722058
550380
470285
426133
405282
396147
393071
395760
403685
422271
467628
544709
690756
1.05614e+06
1.17431e+06
1.15972e+06
1.19031e+06
1.35074e+06
1.39788e+06
1.362e+06
1.31333e+06
1.18634e+06
1.11469e+06
1.09161e+06
1.03912e+06
834387
577587
475726
426307
393769
380312
377816
380043
392256
422271
470664
569056
773888
1.04955e+06
1.10015e+06
1.10443e+06
1.17481e+06
1.31717e+06
1.36887e+06
1.31921e+06
1.26956e+06
1.16723e+06
1.07597e+06
1.02624e+06
1.0175e+06
918782
634504
490617
428271
393648
372790
363947
372347
392013
423487
481019
618862
941427
1.02858e+06
1.0311e+06
1.06622e+06
1.16424e+06
1.27978e+06
1.328e+06
1.27682e+06
1.23525e+06
1.15086e+06
1.04672e+06
974675
969870
915031
742732
518968
433545
394298
372829
363321
372405
392760
429470
508295
725898
938001
983577
979379
1.03911e+06
1.1532e+06
1.23842e+06
1.2766e+06
1.19155e+06
1.17919e+06
1.12366e+06
1.02733e+06
936588
914468
901213
824022
580708
449036
397948
373794
364017
373085
395530
443813
564338
831873
921132
928387
939761
1.02357e+06
1.12973e+06
1.18173e+06
1.1864e+06
1.05822e+06
1.10553e+06
1.08031e+06
1.00293e+06
913545
869715
869616
821986
708572
484260
409204
377305
366540
376034
404544
475407
679654
828429
883028
881025
912638
998929
1.0839e+06
1.10871e+06
1.05567e+06
146580
161587
160185
165132
166754
165545
162559
158909
156761
154821
152531
148558
144994
142357
137461
117788
103094
93990.1
85915.6
81704.9
79297.2
77128.3
75705.9
74999
74681.5
74596.5
74102.9
72783.5
71911.5
71023.3
146996
160489
160207
165057
165199
164477
162101
158803
157171
154839
152538
148576
145085
142422
137193
121844
105056
94881.8
86549.9
80134.1
77355.9
74815.1
73265.5
72556.6
72359
72458
72230.2
71146
70396.7
69570
150410
160414
160168
163647
163760
163231
161722
159071
157229
154883
152080
148487
145070
142374
137563
125242
107618
96444.4
87062.5
79580.1
75613.4
72711
71107.3
70438.6
70310.8
70499.8
70501
69470.5
68765.6
67944.7
151881
160343
160338
163288
162741
162382
161600
159331
157411
154923
151994
148373
144819
142261
137941
129258
110950
98598.6
87782.2
79570.1
73895.7
70840
69166.8
68484.6
68371.6
68560.4
68649.8
67618.4
66889.4
65997.9
152306
160008
160285
162568
161775
160745
160367
159360
157484
154666
151265
148175
144560
141722
138110
131214
114915
101372
89248.7
79835.3
72871.2
69261
67433.2
66667.7
66540.6
66644.9
66712.6
65809
65196.4
64435.2
152428
159923
159546
161797
160961
160108
159426
157953
156894
154003
150180
146864
143552
140945
138136
132166
118802
104540
91552.4
80552.3
72569.7
67812
65776.2
64853.9
64656.6
64707.4
64843
64394.1
64198.4
63699.6
152371
159844
159106
160816
159757
157962
156889
156516
154860
151863
148451
145120
142263
140139
137854
133110
121575
109552
94753.6
82204.3
72612.1
67072.8
64519.9
63390.5
63099.1
63164.5
63562
63455.3
63561.5
63347
152629
159667
158664
160774
159410
156992
155434
152252
151283
149455
146579
143392
141062
139097
137324
133784
124367
111956
99461.9
85016
73377.4
66891.9
63895
62584.9
62170.9
62115.5
62644
62316.7
61690.8
60506
152767
159565
158879
160766
158432
155839
151155
149178
144941
145942
144762
141779
140012
138552
137121
134322
127094
113312
106239
89305.9
75363.1
66986.5
63609.7
62123
61536.3
61073.4
60103.8
58420.1
57357.3
56114.5
153482
159509
158692
159577
157000
151750
146181
143931
142007
143042
142231
140614
139496
138320
137036
134660
129217
114477
108653
98808
78580.1
67517.9
62463
60520.7
58969.1
57623.5
56409.5
54898.7
54012.8
53094.4
154589
159472
158456
159064
154929
148603
143543
137792
138112
138749
140476
140094
139260
138252
137028
135072
130475
116181
109276
105008
84092.6
68453
61013.3
57810.9
56225.7
54967.9
54004.5
52905.5
52231.8
51507.3
155813
159694
158430
158968
153533
145705
140741
134456
135489
137016
139745
139495
139184
138372
137463
135853
131754
117827
109356
106827
95795.6
70445.2
60548.5
56207.7
54476.2
53397.9
52542.4
51550.8
50939.5
50307.9
157569
160098
158706
158972
152318
143713
136763
130893
132596
136245
139357
139247
139641
139568
138766
137265
133429
119476
109514
107252
103856
76323.2
61109.5
55590.3
53105.7
52184.4
51356.6
50443.3
49887.6
49313.3
159114
161218
159976
159009
151808
142870
134522
129244
131216
135816
139330
139947
141285
141166
140684
139528
135926
121201
109741
107172
105532
92092.2
63890.9
55594.9
52490.4
51152.4
50375.8
49524.6
49006.5
48482.1
160662
162605
160665
158973
151643
142541
133579
128879
130775
135745
140018
141217
143620
143617
143324
142403
139119
123620
110038
107124
105870
102013
72074
56898.4
52327.6
50281.4
49579.7
48782
48300.2
47802
161942
163402
160970
158786
151671
142249
133227
128914
132202
136405
141970
143166
145130
146363
146177
145715
144017
127831
110939
107142
106010
104400
92612.4
61077.2
52713.7
50059.3
48864.5
48196.4
47749.9
47265.2
163113
163749
161062
158399
151312
139859
133201
130665
133881
138151
142529
144409
146998
148541
149130
148998
148169
134357
112992
107877
106278
105255
101075
74511.3
54974.9
50117.4
48248.6
47650.4
47299.2
46816.1
164164
163859
161065
157256
149187
138284
133598
132616
136082
140243
144518
146335
148845
149697
151281
151594
150117
136437
116499
109836
107219
105946
104009
95212.2
61493.1
51154.3
48159.6
46826.7
46753.5
46313.7
164381
163677
160496
155675
145971
137221
134282
133568
137598
141499
145603
147444
149872
151902
153921
154134
150823
136553
122216
113477
109248
107107
105414
101429
82343.3
54856.5
48568.4
46515.9
45543.1
45308.2
165011
162963
159267
152817
142712
136521
134797
134558
138207
142181
145728
147809
151270
156073
156753
155964
150220
134988
125045
118583
112865
108911
106907
104298
96935.7
65433.9
50613.6
46572.8
44821.8
43872.2
162153
159847
156452
148897
140518
136129
135017
135013
139390
142729
146760
150448
154401
157979
158041
156481
147946
134068
126583
120942
116710
111499
108548
106074
101653
88224.2
55414.5
47389.3
44733.1
43457.6
160174
157329
152601
143937
138171
135662
134903
135495
139967
143873
148276
152423
155869
158467
158442
155669
145793
133825
127368
122690
118268
114052
110289
107410
103393
96031.5
69575.9
49645.1
44980
43440.4
153771
150128
146928
138959
135219
133530
132909
135652
140200
144397
148984
153281
156332
158546
157191
151090
143704
134288
128026
123752
119048
115745
112173
108618
104094
98914.5
87171
54907.2
45891.7
43533.7
149174
145673
139820
135525
132673
131434
130967
135247
140171
144539
149240
153484
156369
157565
155542
149287
142302
135431
128887
124151
119616
116807
113362
109281
104455
99704.6
92364.2
70029.7
48353.1
43977.8
132938
134125
132211
131460
130435
129449
129102
134768
139871
144462
149289
153558
155887
156497
153069
147481
140882
135855
129920
124552
120587
117516
113930
109597
104656
99844
94341.6
83423.4
54425.4
45588.1
71369.2
72191.8
72943.2
74067.3
74411.3
74515.7
74886.8
75700.1
77193.3
79272.5
81648.3
86334.8
94658.5
104109
120468
137381
142012
144332
148076
151748
153835
155908
158131
160310
162827
163803
163481
159009
160334
145737
69890.9
70631.6
71241.6
72131
72222.9
72201.7
72451.7
73284.6
74940.5
77330.9
80323.7
87033.6
95582.1
106287
124214
137470
141946
144457
148012
151613
154047
156166
158348
161195
163040
163873
162500
158961
159326
146450
68254.5
68980
69533
70355.7
70238.1
70157.7
70327.2
71137
72879.8
75612.8
79876.4
87664.4
97289
108938
127940
137621
141830
144448
147859
151273
154085
156432
158394
161175
162849
163202
162632
159258
159226
149189
66296.2
67085.1
67669
68475.2
68298.9
68221.3
68377.8
69194.9
71014.8
73924.8
79908.3
88499.9
99642.7
112454
130340
137829
141616
144315
147734
151199
154155
156698
158697
160844
161413
161868
162541
159302
159107
150860
64629.9
65336.2
65822.9
66529.7
66404.5
66391.2
66581.3
67464.5
69434.9
73135.8
80249.8
90062.6
102529
116770
131451
137858
141056
143983
147363
150504
154042
156800
158554
159511
160281
160654
161395
158958
158963
151338
63855.7
64254
64328.1
64628.2
64473
64499.2
64769.5
65802.3
67976.8
72937.8
81047
92483.6
105973
120525
132568
137751
140247
142844
146066
149445
153165
156044
157668
158929
159149
159887
160725
158331
158866
151417
63472.1
63565.9
63325.1
63290.4
62898.8
62920.2
63289.9
64531.9
67237.1
73032
82845.2
95718
110619
123171
133039
137225
139323
141488
144330
147715
151063
153866
154920
156307
157084
158882
159836
158027
158629
151346
60598.5
61700.3
62202.4
62304
61832.6
61918.4
62431.7
63853.6
67049.7
73927.9
85736.6
100666
112547
125692
133399
136508
138072
140070
142528
145736
148382
150260
152055
154404
156189
158600
159852
157683
158463
151415
56172.5
57349.3
58306.2
59889.8
60767.7
61207.7
61866.4
63478.3
67149.9
75971.2
90077.8
106635
113752
127977
133740
136202
137495
139046
140845
143749
144981
143957
148157
150261
155167
157668
159722
157845
158371
151505
53185.9
54049.1
54843.5
56262
57437.6
58798.4
60349.7
62387.3
67747.8
79170.3
99400.5
108693
115351
129201
133983
136082
137260
138549
139554
140924
141692
141201
142094
145420
151298
156178
158748
157387
158327
152497
51577.8
52271.9
52888.8
53933.1
54863.7
56131.1
57771.1
61061.6
68761.8
84692.5
104647
109061
116971
130167
134275
136064
137197
138312
138940
139083
137307
137122
136472
142585
147817
153852
158124
157282
158461
153853
50343.9
50944.7
51505.4
52455.5
53296.3
54407.5
56195.4
60665.9
70820.9
96145.9
106234
109035
118921
131230
134906
136425
137418
138206
138442
138464
135484
134004
133193
139576
144430
152377
157954
157270
158533
155412
49326.7
49870.6
50379.6
51255.4
52070.4
53031.5
55585.8
61285.5
76772.2
103139
106589
109318
120342
132774
136280
137740
138584
138666
138231
138162
134574
131116
129680
135565
142952
151212
157952
157767
158885
157307
48489.1
48980.2
49451.5
50267.2
51036.2
52409.8
55595.4
64058
92106.6
104615
106395
109431
122071
135228
138515
139714
140236
140336
139013
138181
134121
129721
128094
133769
142408
150642
157969
159094
160026
158857
47809
48271.1
48703
49467.2
50171.2
52243
56903.5
72162.7
101150
104926
106375
109802
124685
138641
141536
142331
142548
142396
140173
139042
134062
129308
127764
132812
142234
150448
158034
159780
161422
160370
47277.5
47720.7
48112.2
48748.2
49945.9
52627.4
61022.1
92012.2
103367
105045
106388
110742
129670
143624
144874
145283
145420
143951
141738
140358
134680
130715
127837
132473
142125
150453
158076
160139
162167
161545
46825.8
47266.6
47561.4
48142.4
50003.2
54863.8
73997.7
100072
104177
105243
107080
112966
136547
147892
148267
148279
147275
146008
143211
140760
136994
132666
129789
132450
139454
150329
157743
160313
162494
162685
46308.9
46707.2
46749.8
48054.7
51037.3
61226.6
94049.3
102861
104840
106224
109237
116755
138337
150007
150784
150448
148481
147606
145647
143214
138585
134566
131430
132493
137516
148511
156745
160353
162602
163454
45214.6
45458.3
46436.6
48468.3
54701.1
81305.1
100207
104208
105975
108375
113652
122747
138369
151004
154015
153312
151103
148287
146725
144372
139698
136082
132278
133198
136331
145125
155321
160044
162420
163468
43818.7
44780.5
46501.1
50513
65051
95866.7
103130
105673
107877
112105
118930
125692
136813
151329
155773
156001
154766
149377
146977
144537
140730
136853
133505
133757
135481
141596
152682
158999
161760
163985
43444.7
44714
47346.3
55346.2
87435.4
100671
104948
107348
110667
116089
121324
127216
135751
149711
156356
157444
156476
152827
148636
145248
141264
138257
134094
133987
135031
139286
148629
156296
158698
160832
43454.6
45019.1
49710.2
69483.6
95214.9
102555
106654
109212
113339
117877
122456
128029
135326
147202
156443
158183
157133
154678
151066
147113
142663
138780
134976
134004
134788
137368
143439
152340
156266
158876
43579.8
46001.8
55098.2
86678.1
98210.8
103360
107508
111216
115175
119122
123312
128728
135575
145556
154937
158358
158002
155420
152206
148007
143318
138994
135319
132353
132920
134489
138143
146254
148912
152514
44032.2
48517.4
70357.5
91783.9
99049.6
103886
108375
112680
116639
120134
124241
129564
136532
144201
151228
156313
158219
155530
152538
148366
143538
138973
135350
130289
130691
131714
134057
139011
144460
147952
45684.9
54821.9
83240.4
93769.7
99200.4
104141
108833
113393
117430
121217
125811
130990
137115
143146
148737
153439
156595
155313
152601
148436
143515
138528
135039
128493
128509
128853
130084
131398
133609
132039
690051
661068
622878
597489
563590
537001
506414
480407
454254
430716
408343
387909
368431
351052
334399
320043
306574
294857
283900
273866
264876
256733
249517
243212
237775
232837
228277
227348
227722
229206
232177
236783
243203
250920
260106
270499
281704
293175
304666
315722
326923
338465
350219
361949
375635
395081
419080
436431
436108
423844
412105
406509
407108
409005
407586
404322
399880
401220
404760
412167
421631
429010
433609
435384
435317
434655
432601
428325
422080
412531
403018
393529
384166
375294
367072
359380
352043
345012
338195
331579
325368
319740
314685
310192
306121
301981
297212
291644
285487
279058
272622
266412
260649
255417
250612
246015
241384
236486
231242
225633
219733
213779
208098
202515
196611
190700
184782
178878
173787
170094
168043
167372
167349
167427
167910
169637
173902
175879
175179
169766
150951
108303
81127.6
60750.6
50160.8
682498
656461
619844
594656
561692
535141
504773
478295
451616
427684
405269
384680
365447
348089
331832
317685
304636
292894
282448
272685
264207
256399
249393
243037
236921
231204
229648
229659
230166
231604
234728
239255
244701
251467
259443
268141
277077
286179
294646
302840
311528
320592
330437
341540
354667
371443
388276
401725
409509
414020
418205
424355
430943
432768
428113
421527
414578
410626
409393
408162
405625
402604
400130
399046
398401
397223
395388
392964
389940
386316
382045
377204
371973
366502
361190
356201
351251
346082
340717
335375
330261
325379
320487
315395
310149
304815
299401
293993
288514
282747
276497
269696
262347
254492
246146
237451
228775
220365
212358
204745
197578
191237
186033
182160
179475
177824
177271
177208
177355
177773
178734
181829
183403
183160
181337
173710
150682
133997
121503
111804
103302
95828.5
89552.9
83610.5
71553.3
672594
649483
614987
588811
556410
530614
501744
476367
450982
427647
405544
384980
365745
348414
332328
318234
305265
293629
283216
273490
265022
257244
250691
245585
241588
240544
240782
241945
243834
246022
249120
253508
257632
261848
266898
272773
278811
284879
291075
297248
303861
311001
319275
329133
341717
355942
367805
377158
389620
402018
411280
421416
432790
438457
434514
428462
421024
416801
413713
410178
406515
403919
401187
398935
395693
391073
385704
380918
376567
371939
366860
361699
356437
350952
345233
339455
333769
328491
323881
319713
315391
310457
304878
298754
292441
286544
281404
276740
272111
267169
261629
255260
248021
240110
231896
223811
216258
209708
204449
200478
197614
195308
193276
191641
190505
190291
190331
190599
191422
192231
191850
187908
173777
153922
139473
128413
119873
113203
107726
101901
97492.6
93532.5
92284.7
90960.9
88412.7
660268
639697
609106
584296
553117
526532
496589
470621
445888
424077
404047
384749
366420
349776
334516
320940
308102
296717
286786
277856
270659
263793
258337
253660
251851
253327
254012
254598
255987
258729
262220
265339
268385
271121
273904
276854
280198
283996
287712
291675
295367
300130
304805
311532
320254
332040
344509
352385
358905
366883
378516
392799
410996
430686
439562
438665
437335
434943
430265
422157
418535
417378
416125
415540
413992
409966
404790
397187
388617
379620
370247
361108
352536
343991
335596
327902
321001
314888
309189
303376
297189
290782
284631
278890
273801
269665
266209
262731
258768
254208
249050
243359
237311
231132
225150
219764
215301
211975
209956
209171
208955
208868
208707
208365
207649
206047
200342
188849
176468
162951
149627
138061
129008
122239
116686
111760
108250
105349
102604
99715.6
96476.7
95211.2
94780.4
94638.2
94384.7
653513
633344
607495
585123
553999
529121
501089
473041
445993
420590
397724
377972
360813
345679
331492
319146
307674
297336
288362
279503
272301
265578
264024
263679
263077
263232
263945
265490
266993
268383
270180
272075
274235
276095
278082
279885
281867
283851
286630
288888
291338
292894
294823
297633
301966
308019
315329
322656
328185
333911
342070
354542
372134
390903
407859
418520
423669
425787
426588
425051
424624
423614
422250
421398
421305
420651
419762
417227
413403
407905
399486
389454
378855
367513
356008
344560
333733
323879
315269
307466
300229
293463
287358
282276
278272
274861
271789
268569
264975
261034
256809
252373
247760
243020
238344
234037
230420
227630
225546
223588
220743
215922
209047
199481
187247
174066
160752
148145
138020
130029
123899
119193
115010
111555
108948
106586
104747
103613
101490
100101
99615.5
99326.9
99207.4
99202.9
99219.3
653754
632800
608838
586164
558043
530354
503869
481216
457467
431970
407433
384723
364643
347641
332583
319497
306356
296513
289018
281963
276884
274375
272665
270836
271014
271204
272333
273001
274034
275790
277703
279408
280769
281954
283171
284354
285375
286201
286886
288277
289414
289889
291006
291643
292948
295496
298431
301452
304272
307401
311704
318102
327758
341552
356878
369280
379076
387429
392499
394845
395568
396338
396215
394807
392846
390351
388231
387503
388212
386898
385506
384000
381042
375028
365407
356485
346020
335375
324999
315672
307960
301220
295308
290508
286427
282810
279483
276035
272086
267729
263064
258173
253024
247611
241645
234990
227679
219781
211003
200877
189725
178290
166721
155847
146584
138749
132216
126799
121923
117940
114837
112376
110263
108443
106808
105555
104257
103127
102961
102988
103042
103161
103859
104065
104145
664288
643203
621363
597171
570340
542106
515760
488365
463437
439240
418361
398174
377722
359055
342409
326989
313911
303979
296389
290339
286445
283652
282893
283177
283673
284130
285090
286035
286973
288194
289225
289938
290315
290493
290524
290403
290251
289970
289377
288408
288787
288878
289166
289216
289403
290206
291093
292305
293623
295385
297954
301612
306663
313165
321498
331376
341834
350607
357261
361624
362393
362059
361000
357752
353353
348786
343870
339714
336355
334922
334505
334052
333041
331418
328488
324952
321268
317500
313429
308721
302960
296922
291060
285455
280354
275414
269938
263665
256307
248621
240818
232783
224836
217192
209377
200866
191757
182223
172385
162813
154044
146435
140009
134736
130156
125991
122310
119139
116418
114152
112337
110739
109398
108023
106586
105460
105394
105443
105627
106035
106908
108334
108938
109050
109021
644979
627490
613783
595591
573195
548094
523836
499493
474419
452380
431683
412553
394150
376337
359866
344800
331481
320718
312707
306996
303264
301333
300858
300704
300702
300918
301451
301668
302108
302978
302951
302712
302106
300894
299688
298182
296987
295567
294025
292330
290707
289469
288639
288532
288585