/*--------------------------------*- C++ -*----------------------------------*\
| =========                 |                                                 |
| \\      /  F ield         | OpenFOAM: The Open Source CFD Toolbox           |
|  \\    /   O peration     | Version:  2112                                  |
|   \\  /    A nd           | Website:  www.openfoam.com                      |
|    \\/     M anipulation  |                                                 |
\*---------------------------------------------------------------------------*/
FoamFile
{
    version     2.0;
    format      ascii;
    arch        "LSB;label=32;scalar=64";
    class       surfaceScalarField;
    location    "0.00567";
    object      phi;
}
// * * * * * * * * * * * * * * * * * * * * * * * * * * * * * * * * * * * * * //

dimensions      [1 0 -1 0 0 0 0];

oriented        oriented;

internalField   nonuniform List<scalar> 
27436
(
-0.533478
8.19282
-0.0933419
7.47167
-0.085095
7.78731
-0.0710496
7.78665
-0.0651919
7.78861
-0.0484473
7.78086
-0.0402097
7.78924
-0.0354686
7.79115
-0.0237416
7.78663
-0.0145615
7.78891
-0.00821758
7.79074
0.000583472
7.78854
0.0142295
7.7832
0.0311096
7.78081
0.046276
7.78228
0.0547459
7.78836
0.0577862
7.79262
0.0658832
7.78967
0.0753829
7.7883
0.0897258
7.78244
0.0963745
7.78793
0.111735
7.7857
0.123747
7.78268
0.573464
7.46041
8.21683
-0.24721
8.44004
-0.0961381
7.32064
-0.081188
7.77241
-0.0543254
7.7598
-0.0585464
7.79267
-0.0604539
7.78266
-0.0376527
7.76653
-0.0278663
7.78162
-0.0196362
7.77919
-0.011245
7.78015
0.000563542
7.77797
0.0151323
7.77413
0.0150649
7.78336
0.0216161
7.77422
0.0210683
7.78283
0.0378414
7.77153
0.046915
7.78355
0.0588963
7.77767
0.0822115
7.76501
0.0775472
7.78708
0.0721272
7.79328
0.1029
7.75493
0.114195
7.77106
0.268372
7.30786
8.48986
-0.227239
8.66728
-0.141095
7.23448
-0.120353
7.75163
-0.106393
7.7458
-0.104465
7.79085
-0.10646
7.78518
-0.0960676
7.75734
-0.0756574
7.7606
-0.0602152
7.76256
-0.0480563
7.76524
-0.0385816
7.76703
-0.0148785
7.75053
-0.0127076
7.78141
-0.0113528
7.77292
-0.00814927
7.77971
0.0126585
7.75077
0.0236777
7.77252
0.0477264
7.75339
0.0608919
7.75198
0.0596934
7.78833
0.0639091
7.78906
0.0786301
7.7401
0.100793
7.74889
0.192142
7.21766
8.67786
-0.169513
8.83676
-0.139347
7.20429
-0.134006
7.74624
-0.112862
7.72463
-0.113986
7.79211
-0.111137
7.7829
-0.09263
7.74134
-0.0732984
7.74005
-0.0571422
7.74442
-0.0427423
7.74886
-0.0281881
7.75065
-0.00709826
7.7286
0.00282057
7.77178
0.00489139
7.77094
0.0149273
7.76975
0.0351168
7.73045
0.0488459
7.75849
0.0697436
7.73235
0.0888363
7.73313
0.0945567
7.78288
0.0945059
7.78912
0.118942
7.71557
0.111672
7.75638
0.162292
7.16619
8.83454
-0.0735858
8.91032
-0.0365031
7.16721
-0.0924864
7.8022
-0.0628405
7.6949
-0.0704304
7.79976
-0.0711039
7.78416
-0.0552758
7.72734
-0.0373887
7.72152
-0.0237102
7.72903
-0.0133179
7.73674
-0.000444858
7.73672
0.0168486
7.71077
0.0268137
7.7621
0.0278178
7.77007
0.0369285
7.76076
0.0541566
7.71305
0.0636987
7.74865
0.0818469
7.71402
0.0972482
7.71788
0.101812
7.77806
0.097069
7.79389
0.124836
7.68775
0.0902846
7.79109
0.097774
7.15787
8.92993
0.118596
8.79171
0.0438047
7.24203
-0.0502019
7.8962
-0.0133692
7.65822
-0.0334173
7.82
-0.0389052
7.79077
-0.0277867
7.71814
-0.0138322
7.70664
-0.00430499
7.71807
-0.000533583
7.7305
0.00658151
7.72982
0.0196994
7.69691
0.0254522
7.75657
0.0249665
7.77079
0.0295627
7.75627
0.0419105
7.70047
0.045558
7.74468
0.057828
7.70161
0.0687363
7.70724
0.0698958
7.77724
0.0528351
7.81101
0.0884829
7.65203
-0.0137886
7.89375
-0.0208716
7.16483
8.91082
0.304643
8.48706
0.136083
7.4106
-0.00692777
8.03927
0.0211897
7.63024
-0.0252173
7.86673
-0.0530591
7.82023
-0.062863
7.72955
-0.0686636
7.711
-0.0802986
7.72784
-0.0944293
7.74186
-0.111009
7.74619
-0.119999
7.70488
-0.130975
7.76764
-0.146249
7.78628
-0.158047
7.76823
-0.16685
7.70905
-0.185791
7.76335
-0.193681
7.70934
-0.207683
7.7215
-0.22745
7.79685
-0.262145
7.84578
-0.284566
7.67436
-0.354753
7.96429
-0.658253
7.4679
8.25543
0.873311
7.61374
0.52204
7.76186
0.410297
8.15106
0.330881
7.70991
0.263959
7.93391
0.221233
7.86468
0.192735
7.75932
0.171653
7.7307
0.145306
7.75117
0.114962
7.76926
0.084063
7.77641
0.060989
7.72728
0.0380684
7.79058
0.00666194
7.81788
-0.0193111
7.79429
-0.0449965
7.73455
-0.0751791
7.7933
-0.101421
7.73542
-0.130403
7.75056
-0.166253
7.83313
-0.227544
7.90728
-0.278896
7.72577
-0.406387
8.09214
-0.693646
7.75503
7.56557
0.592864
7.02087
0.410028
7.94478
0.237404
8.32383
0.186998
7.76006
0.125288
7.9957
0.0912667
7.90015
0.0842482
7.76726
0.0848974
7.73036
0.0823909
7.75143
0.0764886
7.77205
0.0722465
7.77961
0.0704205
7.72778
0.0771813
7.78365
0.0771469
7.81809
0.0770351
7.79444
0.0720348
7.7393
0.0667908
7.79834
0.0623441
7.7397
0.0568923
7.75611
0.0309503
7.85893
-0.0257497
7.96401
-0.0463706
7.74618
-0.219261
8.26521
-0.372306
7.90815
7.19433
-3.05049
10.0714
-3.39075
8.28518
-2.76373
7.69705
-2.61962
7.61608
-2.30723
7.68294
-1.95245
7.54482
-1.65513
7.46937
-1.37167
7.44732
-1.08058
7.45997
-0.784391
7.47312
-0.49358
7.48746
-0.208985
7.44182
0.097259
7.47717
0.403286
7.51223
0.694068
7.50366
0.965863
7.46731
1.26872
7.49542
1.5455
7.46283
1.83818
7.4631
2.19778
7.49945
2.50462
7.65737
2.65657
7.59457
3.2337
7.6884
2.95077
8.19156
10.1438
-4.25567
14.3279
-4.35844
8.38956
-4.1871
7.52514
-3.89821
7.32465
-3.34604
7.12872
-2.81062
7.00854
-2.35476
7.01483
-1.91824
7.01358
-1.47042
7.01214
-1.02009
7.02067
-0.563045
7.02866
-0.122161
6.99971
0.340101
7.01476
0.812641
7.03983
1.25832
7.05795
1.6789
7.04656
2.13754
7.0368
2.5775
7.02285
3.02747
7.01308
3.56453
6.96238
4.12249
7.09926
4.43689
7.28135
4.60656
7.51795
4.56152
8.23578
14.7038
-2.75226
17.0826
-4.85139
10.4892
-4.98714
7.66005
-4.16578
6.49838
-3.64883
6.60556
-3.19206
6.54848
-2.70306
6.5291
-2.21309
6.52845
-1.71874
6.51789
-1.22504
6.52523
-0.723566
6.52552
-0.244346
6.51943
0.257252
6.51297
0.762511
6.53474
1.26083
6.55964
1.72288
6.58452
2.21242
6.54747
2.70208
6.53335
3.19982
6.51552
3.6684
6.49443
4.24343
6.52405
5.09376
6.43125
4.71467
7.89832
2.77485
10.1762
17.4776
2.3679
14.7173
0.150895
12.7038
-5.00033
12.809
-3.92198
5.41431
-3.8374
6.51853
-3.32419
6.03471
-2.8902
6.10208
-2.38546
6.02852
-1.86173
5.99489
-1.3366
5.99897
-0.815197
6.00363
-0.309525
6.01357
0.210647
5.9931
0.744815
6.00088
1.27307
6.03154
1.79866
6.05917
2.29668
6.0499
2.77658
6.05389
3.20767
6.08476
3.7286
5.97383
3.97131
6.2814
5.0877
5.31374
-0.152409
13.1347
-2.39618
12.4201
15.0803
2.45397
12.2663
3.52729
11.6296
3.54895
12.7812
-0.749325
9.71398
-3.64899
9.39708
-3.21905
5.59354
-2.96867
5.85666
-2.50431
5.57047
-1.9668
5.46068
-1.46686
5.49983
-0.975173
5.51339
-0.472756
5.51301
0.0239566
5.49839
0.523991
5.50148
1.03037
5.52555
1.54167
5.54874
2.06149
5.53096
2.51909
5.59686
2.63339
5.97114
2.89903
5.71156
-0.116094
9.29712
-4.23362
9.43655
-3.90146
12.8021
-2.95445
11.4718
12.1253
1.8886
10.3786
3.85296
9.6675
5.56449
11.0657
4.92188
10.354
4.22655
10.0864
-1.09739
10.9326
-2.48717
7.25322
-2.27123
5.35629
-1.67675
4.87052
-1.19112
5.01745
-0.629459
4.9553
-0.076865
4.96325
0.478475
4.94554
1.03342
4.94804
1.59472
4.96515
2.12644
5.01792
2.62448
5.03468
3.04423
5.18038
1.71127
7.30615
-3.56555
10.9864
-4.3008
10.036
-4.73982
9.87773
-3.05422
11.1132
-1.34498
9.7624
10.7785
0.975205
9.40556
2.07393
8.57134
3.84063
9.30451
4.79546
9.39836
5.10871
9.78065
5.9247
10.133
2.75121
10.432
1.49326
6.61869
0.549058
5.81976
0.0060742
5.56498
-0.0505871
5.0165
0.0968367
4.81838
0.344473
4.70014
0.539883
4.7544
0.578227
4.92902
0.123833
5.47512
-1.01111
6.16905
-2.29331
6.46393
-5.18115
10.1967
-4.40259
10.2156
-3.79008
9.4296
-3.29711
9.38709
-1.70225
9.51302
-0.625309
8.68457
10.153
2.03687
7.37357
3.11096
7.50652
4.37018
8.0614
5.71945
8.0641
6.85993
8.63748
6.514
10.4569
4.95371
12.0273
1.94401
9.64516
0.851364
6.92684
0.166325
6.27117
-0.0530883
5.25931
-0.0462597
4.83411
0.0681053
4.60684
0.157428
4.68709
0.0587725
5.04724
-0.60877
6.16033
-1.66547
7.24344
-4.25864
9.07202
-6.6601
12.6143
-7.09274
10.6643
-6.16336
8.51064
-5.0462
8.27097
-3.76838
8.23415
-2.64805
7.56459
7.50412
2.49117
4.88474
4.03043
5.97357
4.25988
7.84984
3.87405
8.47882
3.74229
8.77884
3.00709
11.1859
1.93034
13.126
1.05343
10.4979
0.950781
7.00952
0.928313
6.286
0.550179
5.64158
0.0750991
5.31592
-0.488836
5.17849
-1.04276
5.24889
-1.56283
5.57468
-1.74274
6.34308
-1.85425
7.35102
-2.91092
10.1313
-3.96855
13.6734
-5.31945
12.0212
-5.41172
8.61674
-5.5899
8.46852
-4.91924
7.56848
-2.90882
5.55721
4.59706
3.2274
1.65768
6.4129
2.78755
8.48668
5.78232
7.50651
9.5026
5.42819
10.8747
4.9835
11.6366
5.65845
12.4615
5.06753
11.0695
3.57315
8.48512
2.61407
7.23398
1.657
6.59328
0.708575
6.26276
-0.265247
6.15146
-1.25243
6.23443
-2.27904
6.597
-3.27208
7.3294
-4.4481
8.51541
-5.06845
10.7351
-3.99317
12.5958
-3.86975
11.9099
-6.23053
10.991
-7.64795
9.89862
-5.81185
5.74133
-2.97124
2.71914
1.62622
1.20728
0.449021
2.83933
1.15255
4.75253
3.86739
5.82118
8.45057
5.27804
11.4281
5.27907
11.6422
5.50645
12.2398
4.88395
11.6869
3.56369
9.7959
2.39885
8.39036
1.33788
7.64807
0.305125
7.29148
-0.7188
7.17212
-1.77916
7.29138
-2.89072
7.70422
-4.08448
8.51834
-5.3675
9.79333
-6.15021
11.5081
-5.78992
12.2293
-5.53981
11.6586
-6.0605
11.5106
-4.91096
8.76486
-2.83938
3.6765
-1.19193
1.07261
0.434143
0.539013
-0.0936095
0.60723
1.08077
0.593642
3.88435
1.15959
7.88971
2.26456
10.3301
3.04688
10.8635
3.57806
11.7154
3.38845
11.878
2.60279
10.5716
1.72695
9.25834
0.892034
8.47778
0.0861367
8.09392
-0.726255
7.98117
-1.55775
8.11955
-2.4375
8.58016
-3.33988
9.41743
-4.12357
10.5733
-4.30585
11.6841
-3.64657
11.5662
-2.79802
10.807
-1.61562
10.3279
-0.651509
7.81824
-0.58278
3.61835
-0.478815
0.965446
-0.0474441
-0.187349
0.0965106
-0.393785
1.28979
-1.11417
4.60776
-0.599609
7.37399
0.531681
9.19963
1.48857
9.90939
2.04344
11.1625
2.08956
11.8275
1.69527
10.9591
1.18667
9.7597
0.667952
8.99099
0.13544
8.62229
-0.402447
8.51575
-0.937208
8.65018
-1.44765
9.08577
-1.91532
9.8806
-2.24585
10.8997
-2.18566
11.6196
-1.58019
10.957
-0.530008
9.75086
0.626889
9.1681
1.21852
7.23515
0.46428
4.38743
0.166405
1.26869
0.122724
-0.686793
0.783114
-1.51371
2.13337
-1.92561
5.02754
-1.6441
7.08957
-0.706046
8.25935
0.122028
9.07845
0.56895
10.7156
0.811237
11.5829
0.862283
10.9044
0.716531
9.90176
0.477969
9.22638
0.20755
8.88972
-0.0806446
8.80064
-0.338912
8.90501
-0.540831
9.28362
-0.621506
9.95761
-0.529622
10.8055
-0.29351
11.3807
0.13453
10.53
0.978661
8.90679
1.9279
8.22046
2.14117
7.02616
1.58916
4.95427
0.571963
2.29691
0.697427
-0.652724
1.42854
-1.95273
3.43499
-2.45541
5.5343
-2.35327
6.98475
-1.8023
7.70807
-1.39615
8.6713
-0.910556
10.227
-0.421469
11.0883
-0.134993
10.6083
-0.0170881
9.78169
0.00142075
9.20561
-0.0569531
8.94616
-0.128757
8.86988
-0.187101
8.96029
-0.168646
9.26056
-0.0400877
9.82502
0.245002
10.5131
0.713104
10.9082
1.17357
10.0694
1.60295
8.47526
2.20588
7.61588
2.33122
6.90387
1.95765
5.3389
0.880372
3.38806
1.582
-0.696462
2.13271
-1.65969
4.38556
-2.2168
6.09201
-2.28534
7.05051
-2.03291
7.45454
-1.78718
8.41989
-1.35522
9.79217
-0.848911
10.583
-0.42621
10.1907
-0.197539
9.55178
-0.107725
9.11726
-0.0612329
8.89751
-0.0368914
8.84298
0.0171702
8.90241
0.126401
9.14768
0.360334
9.58743
0.768683
10.1068
1.28987
10.3874
1.71555
9.64461
1.92974
8.2615
2.20957
7.33631
2.1912
6.92429
1.59465
5.94154
0.650433
4.33593
2.24402
-0.641424
2.81011
-1.63287
5.37348
-2.06974
6.5317
-2.32843
7.30179
-2.21756
7.34239
-2.0435
8.24285
-1.66892
9.41612
-1.1126
10.0219
-0.659824
9.73041
-0.347118
9.24171
-0.134453
8.90718
0.012529
8.75055
0.148841
8.70413
0.300792
8.74912
0.524205
8.9209
0.85649
9.25183
1.31703
9.6377
1.84287
9.85724
2.19871
9.28595
2.34528
8.11595
2.45119
7.23196
2.18756
7.18977
1.70958
6.42456
0.709331
5.33982
2.97084
-0.666693
3.51114
-1.64489
6.36876
-2.20297
7.08457
-2.43722
7.53047
-2.51308
7.41426
-2.4225
8.14838
-2.06849
9.06169
-1.56735
9.52324
-1.07244
9.24254
-0.695515
8.87121
-0.439763
8.65292
-0.221626
8.53008
-0.0255707
8.50657
0.194996
8.52544
0.454996
8.65739
0.814706
8.88778
1.26574
9.18828
1.75897
9.3646
2.12712
8.92009
2.2295
8.0141
2.19792
7.26542
1.97582
7.4139
1.48863
6.91553
0.510405
6.33513
3.49421
-0.396431
3.9234
-1.43923
7.44432
-1.99759
7.63646
-2.25042
7.77449
-2.27698
7.43632
-2.18161
8.05013
-1.87857
8.75611
-1.40214
9.04573
-0.958757
8.80154
-0.602762
8.51834
-0.300507
8.3515
-0.0542768
8.2833
0.187106
8.26391
0.432453
8.2798
0.733349
8.35483
1.09429
8.52242
1.54813
8.7283
1.99346
8.91475
2.28269
8.62508
2.36041
7.93599
2.30999
7.31763
2.01215
7.71473
1.43175
7.49881
0.50598
7.28354
3.99245
-0.401405
4.30508
-1.28575
8.33
-1.88607
8.23126
-2.01644
7.90751
-2.21152
7.63324
-2.1544
7.99469
-1.85012
8.45558
-1.42252
8.6241
-0.982978
8.36555
-0.599475
8.13804
-0.29388
8.04298
-0.00671424
7.995
0.263404
7.99407
0.552133
7.99025
0.855996
8.04836
1.23725
8.13971
1.66181
8.29971
2.09606
8.47966
2.38971
8.33716
2.43592
7.89315
2.25043
7.50384
2.1267
7.83707
1.49311
8.13287
0.49379
8.29835
4.47129
-0.58594
4.8942
-1.49582
9.24367
-2.15622
8.89573
-2.2932
8.04327
-2.37608
7.71106
-2.3749
7.99097
-2.13498
8.21148
-1.70238
8.19015
-1.26609
7.93289
-0.90972
7.77804
-0.585929
7.71892
-0.29415
7.70299
0.00293448
7.69737
0.301251
7.69198
0.634301
7.71658
0.981657
7.78918
1.38978
7.89354
1.77255
8.09291
2.03058
8.06864
2.07976
7.84329
1.97742
7.61154
1.87341
7.94778
1.28375
8.72433
0.327596
9.26108
4.79639
-0.450141
5.35564
-1.24529
10.0559
-1.81247
9.47243
-1.92237
8.15513
-1.99251
7.7807
-2.00329
8.00591
-1.76858
7.97872
-1.41936
7.84473
-1.04589
7.55434
-0.686279
7.41222
-0.371903
7.40031
-0.0599416
7.39237
0.238356
7.39981
0.54753
7.3846
0.856129
7.40569
1.21512
7.43177
1.58582
7.51803
1.95682
7.72676
2.16257
7.87185
2.12742
7.88217
2.06384
7.67089
1.9578
8.05472
1.33066
9.35266
0.508777
10.0728
5.28983
-0.283539
5.64729
-1.06908
10.8698
-1.75078
10.158
-1.80128
8.20177
-1.84466
7.82297
-1.78331
7.93919
-1.59029
7.77487
-1.26307
7.51058
-0.932636
7.22169
-0.648995
7.12508
-0.353039
7.10656
-0.0663386
7.10576
0.231228
7.10468
0.512887
7.10332
0.81301
7.11001
1.1065
7.14037
1.4321
7.198
1.7199
7.43391
1.93902
7.65001
1.98729
7.83823
1.92795
7.73875
1.96133
8.02283
1.26662
10.0454
0.459241
10.881
5.75955
-0.590624
6.22644
-1.194
11.4937
-1.94228
10.9031
-1.8923
8.14792
-1.91938
7.84485
-1.87165
7.89092
-1.65704
7.56056
-1.39895
7.24869
-1.09448
6.90681
-0.792629
6.81814
-0.509937
6.82046
-0.217386
6.81586
0.0619572
6.82648
0.356222
6.8126
0.641339
6.82225
0.936688
6.84599
1.23077
6.90226
1.49366
7.18287
1.66599
7.47996
1.74066
7.76316
1.73074
7.74389
1.64767
8.10299
0.894202
10.7898
0.3907
11.3783
6.15515
-0.308466
6.52344
-0.650418
11.8544
-1.55853
11.7967
-1.66816
8.25413
-1.70839
7.8832
-1.59098
7.7659
-1.41589
7.36938
-1.1416
6.96861
-0.856163
6.61982
-0.606335
6.56982
-0.33653
6.55465
-0.0689669
6.5497
0.214266
6.54625
0.478823
6.54915
0.749494
6.55664
1.00229
6.59696
1.27275
6.63298
1.54599
6.91233
1.74233
7.29151
1.81054
7.70027
1.77128
7.79187
1.66837
8.21082
0.854462
11.6031
0.4884
11.7376
6.64515
-0.152135
6.66554
-0.311634
12.0285
-0.982278
12.4652
-1.46749
8.73679
-1.52481
7.9283
-1.43668
7.67078
-1.23091
7.16146
-1.04999
6.7854
-0.81458
6.37767
-0.563216
6.31438
-0.319547
6.3098
-0.0690657
6.30115
0.169309
6.30994
0.421218
6.3007
0.66079
6.31396
0.907953
6.34774
1.14842
6.39281
1.32835
6.73639
1.51292
7.10457
1.65718
7.55815
1.61248
7.8362
1.13207
8.69083
0.47545
12.2698
0.273565
11.9341
6.91586
-0.437027
7.10409
-0.470333
12.0767
-0.984641
12.9749
-1.69273
9.43754
-1.62703
7.86207
-1.51081
7.55597
-1.3346
6.99161
-1.09666
6.54618
-0.858475
6.13635
-0.65794
6.11678
-0.431474
6.08545
-0.2007
6.07239
0.0471548
6.06425
0.27741
6.07216
0.509459
6.08631
0.722474
6.13715
0.942209
6.169
1.16535
6.51348
1.34622
6.93441
1.40118
7.51243
1.45472
7.78729
0.675359
9.48014
-0.00469226
12.9541
0.0975816
11.8316
7.01164
-0.224422
7.33035
-0.0566202
11.9006
-0.388206
13.3032
-1.24187
10.294
-1.32878
7.94603
-1.26841
7.48732
-1.07948
6.79018
-0.891813
6.35893
-0.709567
5.94903
-0.489324
5.8939
-0.272578
5.86954
-0.0488406
5.85051
0.162383
5.85534
0.385918
5.85156
0.600822
5.86873
0.815196
5.92159
1.0055
5.97734
1.18227
6.33346
1.37003
6.74256
1.48575
7.39644
1.39404
7.88272
0.570145
10.3141
0.246866
13.2782
0.310352
11.7562
7.33055
-0.00363212
7.34515
0.183294
11.7051
0.111354
13.3672
-0.842057
11.2568
-1.2481
8.35165
-1.12054
7.36734
-1.02396
6.69601
-0.822225
6.1573
-0.603732
5.73017
-0.44203
5.73346
-0.257447
5.68412
-0.0661237
5.66009
0.144674
5.64558
0.335009
5.66251
0.518179
5.68675
0.690157
5.7486
0.892416
5.77473
1.10462
6.12539
1.21274
6.64625
1.37138
7.24238
1.07324
8.18077
0.0863146
11.3101
-0.11152
13.4764
0.0362981
11.6094
7.38179
-0.173558
7.53967
-0.139384
11.6653
0.000487466
13.2251
-0.634022
11.889
-1.30132
9.01708
-1.15519
7.22294
-1.00964
6.55001
-0.83698
5.98477
-0.696721
5.58457
-0.520203
5.55705
-0.333163
5.49765
-0.146995
5.47442
0.0257224
5.47316
0.211151
5.47835
0.400135
5.49906
0.572853
5.57569
0.720609
5.62533
0.875806
5.95219
1.00114
6.50708
1.14149
7.1029
0.408448
8.9134
-0.359321
12.0721
-0.19369
13.3062
-0.0824393
11.5111
7.29249
-0.0230885
7.58291
0.0697203
11.5731
0.417391
12.8764
-0.078607
12.3872
-0.918972
9.86958
-0.953449
7.26276
-0.854815
6.45439
-0.715873
5.84781
-0.531239
5.40159
-0.378299
5.40268
-0.218105
5.3371
-0.048692
5.30504
0.137207
5.28732
0.306148
5.30972
0.46421
5.34186
0.628076
5.41095
0.803863
5.45167
0.965094
5.79847
1.03467
6.44463
1.03957
7.10191
0.314852
9.6506
-0.135721
12.5183
0.136969
13.0266
0.130814
11.5271
7.4046
0.0704375
7.5274
0.139425
11.508
0.489636
12.5205
0.525301
12.3534
-0.449625
10.8556
-0.876838
7.68743
-0.701859
6.27682
-0.58856
5.73236
-0.494037
5.30142
-0.353808
5.26436
-0.194745
5.1767
-0.0389608
5.14974
0.107083
5.14061
0.266248
5.15112
0.431571
5.17641
0.567952
5.27606
0.672632
5.34712
0.787799
5.68029
1.0203
6.20346
0.672937
7.45043
-0.28877
10.6129
-0.35301
12.5716
0.0338407
12.6095
0.0801732
11.4654
7.44986
-0.101627
7.63523
-0.0789141
11.4895
0.204651
12.2383
0.365981
12.1938
-0.279611
11.5013
-0.790475
8.20132
-0.807882
6.29321
-0.679827
5.60526
-0.531192
5.14388
-0.406971
5.13665
-0.272201
5.043
-0.128099
5.00609
0.0267959
4.98597
0.170958
5.00734
0.303227
5.04612
0.440607
5.13655
0.572094
5.2185
0.657648
5.6059
0.660433
6.20517
0.0231348
8.09094
-0.746766
11.3802
-0.451449
12.269
-0.137781
12.275
-0.0662998
11.3746
7.35451
0.00206571
7.63988
0.0566103
11.4351
0.281823
12.0123
0.740217
11.7396
0.39069
11.8511
-0.386613
8.98107
-0.625969
6.53344
-0.470519
5.45257
-0.407694
5.07812
-0.307393
5.03955
-0.170103
4.90501
-0.0316194
4.86728
0.0995014
4.85422
0.238872
4.86798
0.383294
4.9028
0.480958
5.04421
0.562489
5.1392
0.717077
5.45666
0.544082
6.38121
-0.10985
8.74841
-0.61689
11.8878
-0.139092
11.7882
0.127189
11.9971
0.15047
11.3497
7.4941
0.112427
7.54079
0.246304
11.2973
0.375542
11.8823
0.661691
11.4484
0.861413
11.6472
0.0809867
9.77121
-0.416342
7.03922
-0.457329
5.49904
-0.356426
4.98216
-0.259475
4.94335
-0.15391
4.80086
-0.0346697
4.74836
0.0949626
4.7247
0.214705
4.7487
0.320312
4.79916
0.42839
4.93551
0.55677
5.01747
0.56772
5.45916
0.103622
6.84628
-0.744158
9.61107
-0.588151
11.7429
-0.222173
11.4235
-0.0141224
11.7883
0.0133077
11.328
7.50733
-0.0890939
7.64295
-0.013045
11.2113
0.128869
11.7408
0.408949
11.1692
0.879817
11.1722
0.2566
10.4028
-0.280642
7.58822
-0.442577
5.65941
-0.38089
4.91289
-0.305225
4.86956
-0.20227
4.69789
-0.0910515
4.63857
0.0181034
4.61609
0.129614
4.63838
0.23135
4.70031
0.294849
4.87536
0.375316
4.93965
0.207981
5.62694
-0.353624
7.42677
-1.10905
10.3692
-0.62673
11.2749
-0.324421
11.1274
-0.211755
11.6863
-0.0674489
11.1848
7.46552
0.0572739
7.6017
0.237886
11.0276
0.305609
11.6627
0.51585
10.9587
0.93233
10.7556
0.924752
10.4145
0.112657
8.4255
-0.269425
6.0502
-0.299027
4.9472
-0.204143
4.7752
-0.124123
4.62087
-0.0321969
4.54967
0.0780837
4.50846
0.171645
4.54761
0.253915
4.6228
0.357091
4.77704
0.37026
4.93752
0.00613869
6.00937
-0.870437
8.31226
-0.942434
10.4332
-0.406991
10.7398
-0.167848
10.9028
-0.0992721
11.6306
0.0319746
11.0545
7.52898
0.106481
7.50906
0.324104
10.8035
0.399915
11.5831
0.612466
10.7413
0.930924
10.4418
1.23775
10.1134
0.659659
9.01196
0.0343329
6.68842
-0.184445
5.16811
-0.153686
4.75151
-0.086045
4.55528
-0.0116031
4.48027
0.0653199
4.43464
0.146917
4.47032
0.224898
4.54835
0.272995
4.7385
0.154424
5.06248
-0.335312
6.52579
-1.08939
9.08049
-0.840495
10.185
-0.479999
10.3811
-0.239797
10.6697
-0.186877
11.5889
-0.0203392
10.892
7.54265
-0.000210165
7.52107
0.180267
10.6274
0.28394
11.4727
0.417637
10.6111
0.694928
10.1694
1.1216
9.68657
0.897804
9.23585
0.169653
7.44035
-0.158753
5.49763
-0.190442
4.77751
-0.125538
4.49528
-0.0586721
4.41847
0.00568247
4.37978
0.0721507
4.40867
0.132186
4.49522
0.100724
4.77389
-0.193435
5.3652
-1.08522
7.45627
-1.28773
9.2863
-0.805142
9.70583
-0.557817
10.1316
-0.442667
10.5595
-0.379988
11.5368
-0.116474
10.6419
7.44722
0.0270444
7.50625
0.289581
10.3767
0.423378
11.3401
0.557531
10.475
0.776987
9.95145
1.02331
9.43667
1.22063
9.04025
0.791527
7.86863
0.105121
6.18485
-0.0729154
4.96662
-0.0506526
4.47316
-0.0113126
4.38507
0.0297568
4.34848
0.0760552
4.36749
0.108624
4.46483
-0.0622266
4.95344
-0.686241
5.99943
-1.18688
7.95363
-0.98582
9.11761
-0.740941
9.45363
-0.499627
9.89446
-0.379584
10.442
-0.259179
11.4303
-0.00106828
10.4053
7.46517
0.0608974
7.45226
0.374435
10.0784
0.590746
11.124
0.640627
10.4258
0.791923
9.80026
1.01123
9.21285
1.36428
8.67764
0.926162
8.3031
0.370601
6.74947
0.0463397
5.3029
-0.0132545
4.53926
0.00621059
4.36832
0.0309005
4.33466
0.0539975
4.34941
0.00513208
4.5277
-0.294698
5.26253
-0.993507
6.72441
-1.31392
8.26681
-0.936794
8.72154
-0.710539
9.23008
-0.543022
9.7337
-0.506474
10.3956
-0.297748
11.2286
-0.0107341
10.1388
7.4571
0.0110592
-2.58591
0.0195472
-2.50278
0.0718824
-2.50617
0.11483
-2.35684
0.21757
-2.30461
0.302746
-2.23724
0.360255
-2.18954
0.38751
-2.14908
0.407389
-2.10221
0.415145
-2.03279
0.416838
-1.96166
0.406317
-1.8764
0.39902
-1.77444
0.368699
-1.70267
0.318708
-1.57871
0.108365
-1.25773
0.0235138
-0.958646
-0.0354045
-0.78611
-0.0700344
-0.645352
-0.0774231
-0.545074
-0.0771236
-0.538068
-0.0727696
-0.521571
-0.0613776
-0.519236
-0.0438504
-0.524822
-0.0246744
-0.533082
-0.00828917
-0.541252
-0.000694964
-0.541286
0.00186892
-0.528039
0.00232944
-0.517065
-0.506277
0.142307
-2.72232
0.17572
-2.44151
0.192046
-2.34595
0.264441
-2.14419
0.349609
-2.09187
0.427693
-2.02923
0.463969
-1.94745
0.492837
-1.97029
0.514645
-1.99277
0.510166
-1.92136
0.497452
-1.86245
0.476858
-1.78369
0.460739
-1.67956
0.441535
-1.61652
0.392896
-1.52145
0.182775
-1.24037
0.0784533
-0.949681
0.0106922
-0.760988
-0.0397912
-0.615424
-0.06446
-0.507165
-0.0688999
-0.488964
-0.0670308
-0.473507
-0.0564465
-0.47212
-0.0387671
-0.478048
-0.0201943
-0.485733
-0.00149066
-0.494206
0.00783965
-0.497468
0.00833158
-0.488056
0.00455921
-0.479552
-0.47146
0.0373743
-2.65699
0.052727
-2.31472
0.11207
-2.11256
0.192018
-1.90163
0.277622
-1.80206
0.342724
-1.75367
0.386444
-1.68497
0.425546
-1.75592
0.458281
-1.83093
0.466124
-1.79424
0.459051
-1.75139
0.443981
-1.68463
0.433793
-1.58739
0.420257
-1.52971
0.380166
-1.46642
0.198966
-1.25452
0.0917735
-0.952521
0.0184692
-0.749217
-0.039789
-0.595976
-0.0707001
-0.490621
-0.0790049
-0.445451
-0.0770519
-0.430081
-0.066663
-0.427599
-0.0493139
-0.43301
-0.0298114
-0.440962
-0.00807377
-0.449929
0.00383876
-0.456205
0.00718612
-0.451858
0.00538854
-0.445518
-0.438096
-0.0747756
-2.48726
-0.0245839
-2.15126
0.059574
-1.81265
0.140393
-1.59028
0.212038
-1.43786
0.271284
-1.3805
0.340841
-1.36213
0.398007
-1.46988
0.439405
-1.61238
0.45747
-1.63937
0.455307
-1.62497
0.440192
-1.57746
0.426805
-1.49195
0.418736
-1.43765
0.378824
-1.39227
0.237602
-1.28097
0.122941
-0.961027
0.0388763
-0.754675
-0.0269107
-0.586039
-0.068555
-0.475078
-0.0844525
-0.395954
-0.0823179
-0.391299
-0.0717081
-0.38717
-0.0543173
-0.391849
-0.0339664
-0.400698
-0.011258
-0.409849
0.00227731
-0.418047
0.0064178
-0.418247
0.00497112
-0.412963
-0.400619
-0.0539091
-2.30773
-0.0068248
-1.92716
0.0707839
-1.47057
0.136366
-1.20865
0.186193
-1.0707
0.254656
-1.02911
0.337558
-1.00839
0.411201
-1.125
0.446604
-1.31077
0.467038
-1.43
0.469551
-1.46937
0.457361
-1.45162
0.438738
-1.39224
0.4284
-1.34259
0.390531
-1.30515
0.31434
-1.20213
0.167406
-0.976626
0.0713253
-0.767587
0.000379822
-0.588591
-0.0580009
-0.459505
-0.0840041
-0.374185
-0.0841772
-0.357537
-0.0740808
-0.351522
-0.0572764
-0.355966
-0.0372556
-0.365354
-0.01516
-0.374652
-0.00181619
-0.382236
0.00299338
-0.384257
0.00213395
-0.37874
-0.368682
-0.0449538
-2.11885
0.0156643
-1.67232
0.0655758
-1.11356
0.115269
-0.867498
0.158371
-0.831544
0.225615
-0.814361
0.325277
-0.77584
0.407551
-0.783123
0.463467
-0.973476
0.482966
-1.16724
0.486935
-1.28421
0.474018
-1.31263
0.454259
-1.28222
0.445029
-1.25086
0.414215
-1.21978
0.360741
-1.13687
0.212211
-0.967699
0.109051
-0.796713
0.0237886
-0.603556
-0.0437204
-0.451276
-0.0755746
-0.362585
-0.0842127
-0.319583
-0.0749683
-0.320492
-0.0586193
-0.324344
-0.039423
-0.333215
-0.0188032
-0.341997
-0.00467423
-0.346848
0.00165071
-0.345617
0.00259028
-0.34126
-0.335597
-0.00872418
-1.94384
0.0311285
-1.37748
0.0597176
-0.842769
0.100675
-0.773961
0.157163
-0.829231
0.225771
-0.830924
0.291387
-0.766058
0.389743
-0.60824
0.441259
-0.63804
0.479821
-0.873596
0.49171
-1.06874
0.483361
-1.15768
0.464126
-1.16434
0.454892
-1.15536
0.441157
-1.13522
0.396991
-1.08052
0.253436
-0.944834
0.151659
-0.825029
0.0535425
-0.62791
-0.0266591
-0.457263
-0.0730713
-0.344647
-0.0831543
-0.294261
-0.075901
-0.289731
-0.0599963
-0.292988
-0.0415401
-0.300329
-0.021112
-0.307563
-0.00523436
-0.313655
0.00180561
-0.309746
0.0032507
-0.302774
-0.300389
0.00259083
-1.75134
0.0343032
-1.10015
0.0480446
-0.770508
0.0956352
-0.798302
0.169906
-0.888929
0.240232
-0.895761
0.305272
-0.816816
0.348745
-0.610094
0.40213
-0.407163
0.458641
-0.584789
0.484301
-0.832899
0.485003
-0.990552
0.46857
-1.04301
0.461795
-1.05806
0.447781
-1.05431
0.424628
-1.02821
0.284642
-0.921335
0.194398
-0.797855
0.0909079
-0.742114
0.00102497
-0.477212
-0.0675085
-0.337106
-0.0830401
-0.274227
-0.0781127
-0.261223
-0.0622655
-0.263623
-0.0419042
-0.271013
-0.0206714
-0.278201
-0.00180153
-0.286583
0.00583746
-0.302034
0.00470578
-0.306196
-0.309309
0.00380047
-1.53754
0.0296892
-0.877253
0.0448812
-0.76247
0.0956333
-0.836846
0.168587
-0.982556
0.246956
-1.01686
0.297617
-0.899712
0.32157
-0.624238
0.348191
-0.331093
0.425335
-0.365383
0.46614
-0.60074
0.478188
-0.819683
0.470971
-0.924208
0.464899
-0.972444
0.458917
-0.986147
0.440171
-0.978479
0.308732
-0.900775
0.232089
-0.769558
0.146859
-0.76476
0.0309907
-0.539229
-0.0528663
-0.347699
-0.0816921
-0.255584
-0.0800503
-0.234311
-0.0651542
-0.238858
-0.0414689
-0.252713
-0.0194149
-0.273041
-0.00637293
-0.291555
-0.000627366
-0.308713
0.000300804
-0.313908
-0.316988
0.00427566
-1.3142
0.0208245
-0.719269
0.039617
-0.759972
0.0868623
-0.883144
0.163491
-1.09124
0.240178
-1.14347
0.293541
-1.01018
0.297599
-0.65227
0.304634
-0.313851
0.361987
-0.23016
0.421269
-0.4098
0.45985
-0.663953
0.467203
-0.811632
0.463926
-0.889979
0.464838
-0.924516
0.447231
-0.928258
0.373528
-0.879396
0.257638
-0.756607
0.203384
-0.762016
0.0778317
-0.731588
-0.0269748
-0.393045
-0.0736569
-0.266991
-0.0809147
-0.220924
-0.0660344
-0.241825
-0.0467725
-0.258523
-0.0280102
-0.27804
-0.0146332
-0.294276
-0.00695396
-0.306221
-0.00278402
-0.308015
-0.307383
0.00101359
-1.10119
0.00826143
-0.626601
0.0325066
-0.770066
0.0854478
-0.946861
0.155463
-1.18319
0.22303
-1.252
0.270286
-1.11588
0.261734
-0.693469
0.263811
-0.309854
0.292314
-0.173449
0.377207
-0.287468
0.429268
-0.525244
0.454211
-0.707832
0.460014
-0.812003
0.46653
-0.867684
0.458369
-0.885183
0.412766
-0.859996
0.271437
-0.753755
0.233299
-0.734268
0.200556
-0.765231
0.0171602
-0.503901
-0.0626767
-0.302679
-0.0810955
-0.232841
-0.0702417
-0.232144
-0.0526751
-0.258551
-0.0348575
-0.272477
-0.0210185
-0.283416
-0.0115832
-0.292566
-0.00513544
-0.294154
-0.293494
-0.00308553
-0.916525
-0.00250175
-0.586471
0.0214624
-0.783905
0.0704902
-1.00051
0.130437
-1.24975
0.185485
-1.31233
0.22648
-1.15197
0.222604
-0.71045
0.215638
-0.299026
0.233626
-0.156878
0.316528
-0.219568
0.388039
-0.422112
0.434886
-0.62283
0.448828
-0.747179
0.461805
-0.824765
0.468336
-0.859111
0.429152
-0.844251
0.278224
-0.754142
0.254917
-0.724082
0.262565
-0.784024
0.0670364
-0.803945
-0.044638
-0.371145
-0.070994
-0.263919
-0.0734317
-0.231427
-0.0573722
-0.248615
-0.0396026
-0.262514
-0.0251943
-0.272069
-0.0146942
-0.279812
-0.00643137
-0.281322
-0.279542
-0.0125954
-0.76268
-0.0132084
-0.559637
0.00637426
-0.792873
0.0389743
-1.03992
0.0839334
-1.31648
0.133027
-1.36903
0.14696
-1.14859
0.148848
-0.707088
0.148252
-0.295736
0.16586
-0.150375
0.237491
-0.199784
0.334443
-0.376304
0.407267
-0.575139
0.439519
-0.704163
0.453238
-0.799781
0.471052
-0.847199
0.441628
-0.835109
0.280878
-0.755079
0.26019
-0.728738
0.267285
-0.781395
0.219801
-0.847074
0.00303357
-0.516879
-0.0673856
-0.297884
-0.0699218
-0.243658
-0.0607754
-0.233147
-0.0433169
-0.252211
-0.0286005
-0.260618
-0.0170929
-0.267494
-0.00800405
-0.26865
-0.266702
-0.0197858
-0.640345
-0.0271208
-0.533747
-0.0209948
-0.791347
-0.00840445
-1.07411
0.0184975
-1.37886
0.0414238
-1.40894
0.0380039
-1.13577
0.0583752
-0.709952
0.0776144
-0.302439
0.112742
-0.164866
0.184449
-0.207549
0.281109
-0.378869
0.363249
-0.576075
0.413018
-0.695381
0.449373
-0.790132
0.476826
-0.841307
0.454789
-0.836843
0.278973
-0.766855
0.255593
-0.735772
0.275651
-0.780835
0.294275
-0.858411
0.0582493
-0.889423
-0.0483567
-0.376259
-0.0667901
-0.2596
-0.0622333
-0.23209
-0.0462566
-0.23242
-0.0312104
-0.249036
-0.0189334
-0.255393
-0.00911521
-0.2562
-0.254491
-0.0252868
-0.538628
-0.0424604
-0.499952
-0.0550353
-0.775537
-0.0799022
-1.07869
-0.0811724