/*--------------------------------*- C++ -*----------------------------------*\
| =========                 |                                                 |
| \\      /  F ield         | OpenFOAM: The Open Source CFD Toolbox           |
|  \\    /   O peration     | Version:  2112                                  |
|   \\  /    A nd           | Website:  www.openfoam.com                      |
|    \\/     M anipulation  |                                                 |
\*---------------------------------------------------------------------------*/
FoamFile
{
    version     2.0;
    format      ascii;
    arch        "LSB;label=32;scalar=64";
    class       volScalarField;
    location    "0.00949";
    object      k;
}
// * * * * * * * * * * * * * * * * * * * * * * * * * * * * * * * * * * * * * //

dimensions      [0 2 -2 0 0 0 0];

internalField   nonuniform List<scalar> 
13875
(
812.097
3462.61
3540.35
3538.8
3541.62
3540.5
3541.67
3541.36
3539.89
3540.4
3542.09
3541.38
3540.66
3540.14
3540.44
3541.19
3541.91
3541.15
3540.76
3540.23
3541.15
3538.98
3540.04
3460.07
820.55
881.793
2936.62
3013.02
3000.19
3001.37
2998.19
2998.24
2998.6
2997.41
2996.39
2997.08
2998.41
2996.4
2996.34
2996.19
2998.5
2996.23
2997.1
2996.97
2998.58
3000.44
2999.28
3011.56
2933.51
894.639
993.362
2710.85
2777.49
2755.04
2759.14
2754.73
2747.46
2745.56
2743.93
2742.79
2742.41
2744.08
2751.23
2752.13
2750.89
2744.66
2741.21
2742.7
2745.31
2755.08
2757.65
2753.16
2774.38
2706.65
998.531
1091.07
2533.68
2581.03
2561.28
2567.05
2562.3
2553.62
2550.28
2548.6
2548.14
2547.38
2547.95
2559.06
2559.99
2558.85
2548.68
2547.32
2547.55
2551.16
2562.9
2565.47
2559.4
2578.99
2529.87
1094
1172.11
2380.46
2413.22
2392.76
2398.35
2393.6
2384.34
2381.02
2380.22
2380.07
2379.09
2379
2390.05
2391.39
2389.9
2379.76
2379.18
2379.03
2382.35
2393.9
2396.76
2391.16
2410.34
2375.94
1177.41
1241
2237.13
2270.99
2244.92
2251.61
2245.43
2234.53
2231.34
2231.21
2231.37
2230.12
2229.44
2240.59
2242.29
2240.52
2230.2
2230.47
2229.9
2233.09
2245.69
2249.94
2243.72
2267.78
2247.52
1247
1320.96
2121.82
2158.38
2120.43
2123.44
2115.43
2102.27
2098.55
2098.88
2099.21
2097.72
2096.53
2107.82
2109.69
2107.57
2097.23
2098.53
2097.66
2101.55
2115.49
2121.67
2119.74
2154
2095.71
1322.98
1409.74
2000.71
2073.6
2019.78
2016.56
2002.56
1985.88
1981.05
1981.38
1981.74
1980.12
1978.14
1989.65
1991.89
1989.45
1978.8
1981.39
1980.5
1985.43
2002.18
2013.95
2017.98
2068.31
1992.72
1419.89
1691.38
2029.38
2022.01
1944.47
1925.12
1904.79
1883.82
1877.29
1877.58
1877.99
1876.44
1873.62
1885.29
1887.98
1885.39
1874.58
1878.04
1877.14
1883.35
1903.86
1922.39
1942.18
2017.87
2033.46
1716.52
2509.02
2285.39
2018.17
1901.22
1858.87
1826.02
1802.07
1795.1
1794.38
1794.31
1792.82
1789.58
1800.83
1803.95
1801.46
1791.85
1794.86
1795.02
1801.33
1824.71
1855.62
1891.53
2011.5
2266.23
2529.76
3876.82
3026.47
2153.74
1915.8
1814.7
1771.86
1744.52
1734.58
1732.1
1730.89
1729.29
1725.9
1736.13
1739.57
1738
1730.96
1733.12
1735.04
1744.96
1768.22
1813.29
1907.2
2129.63
2936.48
3858.87
5185.89
6454.55
2852.86
1994.22
1853.76
1756.17
1712.09
1696.72
1690.75
1687.99
1686.02
1682.92
1691.15
1694.76
1694.72
1690.73
1692.82
1697.82
1712.25
1757.78
1847.08
1974
2789.45
6314.63
5120.69
5056.98
7626.47
7048.08
3336.08
2042.26
1796.1
1741.6
1701.64
1685.66
1678.27
1674.45
1671.03
1676.74
1680.28
1682.34
1682.88
1689.89
1706.5
1746.44
1804.09
2089.05
3232.13
6762.56
7645.24
5009.99
4826.64
6359.93
7173.54
8739.2
5168.61
2331.69
1900.46
1783.5
1748.49
1743.81
1740.78
1737.71
1742.3
1745.48
1748.61
1751.99
1757.79
1792.25
1941.1
2483.32
5618.11
8152.68
6954.71
6329.19
4832.92
4603.31
5512.96
6040.46
6991.42
6828.4
6732.62
3439.72
2379.33
2132.31
2037.12
1996.6
1981.57
1981.87
1986.26
1997.67
2029.47
2119.35
2386.85
3631.24
6897.24
6816.48
6704.35
5964.64
5485.9
4681.4
4293.19
4799.08
5114.5
5880.91
6060.8
6570.87
5577.82
5157.45
4846.3
4195.55
4269.28
4321.46
4364.33
4350.3
4287.69
4185.3
4743.71
5441.82
5662.34
6633.95
5996.38
5706.41
5070.6
4777.47
4365.34
3727.99
4040.39
4337.66
5065.7
5578.5
6482.85
7295.09
7556.71
6694.94
6252.99
6506.39
6737.94
6871.41
6817.89
6571.39
6548.55
6707.22
7549.87
7337.81
6456.68
5430.05
4898.95
4224.14
3959.8
3719.38
3064.32
3408.41
3952.12
4857.36
5495.86
6088.45
7057.45
7773.06
6530.66
5482.16
5208.79
5232.66
5301.57
5267.19
5266.48
5786.65
6521.23
7423.98
7020.17
6205.21
5529.6
4802.29
3859.79
3345.43
3026.94
2642.47
3173.16
3860.05
5062.33
5967.72
5768.92
6057.23
6764.3
6133.65
5180.47
4687.42
4541.8
4532.99
4586.43
4783.09
5320.63
5965.51
6450.51
6057.27
5958.15
6247.71
5085.99
3840.4
3154.03
2644.2
2529.12
3413.77
4089.33
5194.08
5763.26
5300.88
5234.92
5718.07
5569.39
4954.33
4416.52
4085.55
3974.37
4159.67
4549.86
5030.55
5361.03
5468.86
5259.83
5490.17
5953.46
5170.66
4093.78
3428.66
2520.76
5100.79
7705.03
6241.79
4833.74
5001.95
4646.87
4564.78
4966.9
5033.26
4624.19
4082.98
3652.85
3500.48
3762.87
4244.36
4675.4
4828.12
4769.89
4602.47
4813.14
5148.76
4956.71
6672.89
8182.33
5950.45
11572.9
23208.6
7864.45
4243.03
4305.72
4084.35
4039.69
4394.79
4538.25
4243.26
3726.56
3259.87
3089.91
3378.06
3884.02
4272.04
4341.81
4239.62
4069.69
4217.6
4412.6
4374.64
8379.04
23284.8
12721.2
13732.6
19518.1
6914.73
3780.98
3765.62
3629.43
3601.84
3926.98
4087.39
3853
3367.58
2909.48
2734.66
3010.2
3502.89
3867.63
3900.98
3796.17
3622.03
3722.53
3840.85
3889.3
6947.72
18993.9
13571.5
13034
19606.6
5841.71
3431.64
3329.62
3237.71
3229.89
3517.19
3677.35
3474.92
3019.14
2590.65
2433.61
2691.33
3156.29
3498.2
3508.89
3400.05
3251.19
3317.43
3403.65
3542.16
5976.22
20127.2
12977.9
12688.2
19222.1
5192.24
3160.54
2999.37
2915.76
2925.84
3169.02
3314.7
3133.77
2715.91
2322.39
2180.29
2415.26
2848.02
3162.91
3166.56
3061.11
2937.98
2983.11
3075.78
3270.05
5391.16
20266.4
12766.9
12448.3
19233.7
4729.43
2916.37
2736.35
2646.79
2673.31
2872.26
2994.87
2832.14
2455.32
2095.19
1965.34
2175.86
2570.45
2857.97
2864.57
2769.14
2667.44
2692.91
2805.23
3005.96
4891.61
20037.1
12711.7
12514
17794.8
4248.47
2695.3
2524.07
2423.76
2456.8
2614.73
2707.01
2552.81
2218.02
1898.83
1783.46
1976.19
2334.35
2592.65
2606.68
2524
2440.57
2458.94
2592.98
2787.37
4462.58
18867
12680.2
12348
16892.2
3923.9
2516.1
2350.85
2242.3
2272.29
2395.66
2461.84
2317.65
2019.72
1733.01
1627.93
1800.89
2122.24
2356.06
2379.85
2313.04
2247.36
2266.21
2406.84
2593.38
4136.5
18142.5
12543.2
12017.9
16495.7
3696.5
2362.53
2202.58
2097.12
2113.37
2205.45
2248.42
2111.55
1848.25
1591.39
1494.11
1648.75
1933.09
2141.92
2178.7
2129.46
2080.55
2104.34
2242.3
2424.9
3826.88
16704.6
12464.1
11775.8
15421.7
3499.47
2232.12
2065.13
1970.84
1978.08
2037.58
2055.14
1923.88
1691.31
1464.91
1378.48
1520.95
1778.2
1965.39
2007.39
1972.98
1941.62
1970.47
2096.53
2287.81
3642.82
16051.1
12174.1
11401.6
14147
3340.73
2129.5
1943.83
1858.3
1859.76
1893.47
1891.74
1765.82
1560.4
1357.68
1277.93
1406.88
1635.56
1802.5
1853.97
1836.44
1822.22
1851.36
1962.55
2171.32
3447.3
14686.6
11883.3
11077.1
13373.4
3223.27
2052.93
1836.33
1755.11
1753.92
1769.01
1751.63
1631.8
1447.68
1263.84
1190.61
1306.28
1512.64
1664.68
1721.02
1717.61
1715.63
1743.02
1845.12
2082.09
3288.52
13573.5
11530.9
10801.8
12169
3094.57
1993.24
1744.03
1664.31
1654.89
1656.4
1623.1
1507.9
1344.21
1180.32
1114.07
1221.34
1408.18
1544.99
1605.05
1614
1618.41
1648.5
1747.78
2014.41
3187.19
12804.3
11164.9
10493.8
11256.4
2977.33
1951.37
1669.67
1583.4
1562.86
1557.38
1513.81
1404.41
1256.95
1107.4
1046.75
1143.22
1313.46
1438.85
1500.9
1520.75
1528.58
1563.69
1666.96
1962.51
3092.52
11787.4
10841.1
10205.7
10605.6
2852.68
1915.48
1619.76
1510.19
1480.72
1467.01
1417.25
1312.3
1179.52
1043.39
987.278
1075.29
1229.3
1344.18
1408.61
1435.2
1448.59
1492.37
1610.1
1928.01
2962.83
10927.6
10536
9927.95
9884.97
2727.43
1883.22
1584.92
1446.78
1405.76
1382.96
1329.31
1229.97
1108.81
984.718
934.31
1015.33
1158.46
1264.19
1327.21
1356.78
1377.38
1428.22
1574.36
1903.12
2844.41
10385.7
10247.7
9671.6
9381.35
2622.39
1877.64
1563.81
1394.62
1339.89
1307.79
1251.01
1157.71
1047.35
933.738
886.981
961.177
1091.65
1189.23
1251.63
1285.47
1312.65
1374.35
1550.59
1896.32
2714.51
9739.51
9963.49
9405.54
9121.61
2525.16
1868.48
1554.01
1358.26
1280.11
1240.08
1181.15
1094.34
993.194
887.345
844.438
912.116
1033.54
1123.67
1183.17
1221.49
1254.07
1336.78
1542.76
1888.17
2590.11
9342.64
9692.51
9116.56
8716.21
2408.03
1826.96
1558.16
1333.79
1229.36
1179.2
1116.72
1034.68
941.975
845.308
806.339
869.457
981.916
1065.03
1122.85
1164.92
1204.52
1310.62
1550.05
1853.89
2475.27
9139
9410.82
8847.11
8488.37
2300.48
1777.03
1575.99
1320.44
1189.98
1126.34
1060.7
983.244
897.908
807.543
771.555
829.1
934.521
1011.45
1067.39
1115.22
1166.77
1297.07
1562.28
1796.1
2364.61
8849.91
9117.97
8628.83
8309.15
2239.83
1726.07
1611.19
1318.71
1161.78
1082.88
1011.58
936.658
857.354
773.359
740.056
792.91
890.564
963.073
1019.16
1073.73
1141.14
1294.71
1611.31
1742.79
2270.18
8633.05
8844.84
8430.2
8103.78
2154.48
1658.96
1604.27
1327.1
1140.77
1050.42
969
894.447
820.049
741.379
711.025
760.337
853.066
921.189
978.362
1042.46
1121.76
1309.99
1628.12
1691.86
2284.17
8431.52
8628.78
8246.7
7934.76
2099.71
1590.69
1563.26
1360.63
1130.64
1026.12
935.025
857.864
786.729
712.751
684.52
730.041
816.879
882.618
943.468
1019.58
1111.64
1339.34
1588.85
1619.8
2205.05
8227.62
8438.7
8094.9
7762.59
2147.19
1530.49
1507.4
1415.35
1136.53
1006.27
910.004
827.625
757.526
686.381
660.027
702.268
784.709
849.723
916.95
1002.56
1120.69
1407.74
1533.58
1552.55
2179.89
8040.94
8269.84
7947.86
7612.13
2083.55
1468.91
1442.73
1426.91
1169.54
995.045
889.461
803.244
731.467
662.625
637.956
677.946
758.122
823.933
896.764
993.439
1164.15
1433.77
1469.45
1502.66
2221.84
7865.31
8131.69
7801.97
7441.97
2121.28
1425.72
1378.37
1380.62
1245.98
1002.55
875.117
786.062
711.738
643.028
618.582
656.949
736.27
804.91
881.012
1000.25
1238.95
1390.51
1403.1
1448.81
2198.31
7697.66
7999.28
7656.73
7281.92
2175.28
1398.61
1321.63
1328.47
1276.48
1052.43
867.308
770.971
697.193
628.033
601.376
640.751
719.887
789.437
871.473
1048.12
1278.75
1337.73
1342.7
1409.33
2195.96
7532.17
7851.87
7441.43
7090.49
2157.94
1367.82
1272.02
1272.28
1239.13
1131.07
881.962
759.162
684.869
616.673
588.712
628.877
707.037
777.921
886.463
1133.73
1246.9
1279.43
1291.26
1389.8
2240.96
7322.05
7626.64
7158.65
6838.25
2154.03
1349.14
1229.07
1215.34
1196.49
1175.5
937.402
756.339
675.6
607.337
579.975
618.924
696.326
773.375
937.921
1187.38
1205.13
1220.48
1244.69
1366.82
2211.35
7064.28
7338.87
6519.62
6375.56
2138.73
1333.24
1192.58
1166.08
1151.75
1147.44
1028.75
784.502
671.638
599.707
572.145
610.602
690.043
796.165
1030.26
1163.93
1159.97
1170.31
1204.85
1344.33
2167.94
6593.85
6691.73
6160.66
9470.9
9115.75
7551.07
5990.36
4922.66
4204.52
3656.29
3157.18
2648.49
2132.28
1676.35
1315.43
1062.86
896.36
788.103
719.143
670.334
630.161
599.641
574.809
547.396
519.678
489.557
456.735
422.534
387.064
349.99
318.299
370.453
6358.35
10027.7
9490.66
7753.17
6099.98
5000.88
4271.07
3722.97
3236.68
2750.29
2253.05
1797.38
1420.04
1146.33
956.362
830.484
745.853
684.542
639.771
605.223
574.444
545.318
515.593
483.126
449.744
415.28
380.675
345.147
315.994
367.914
6650.2
10658.6
9841.61
7953.68
6234.97
5113.35
4372.6
3820.54
3336.9
2858.16
2369.52
1915.54
1525.28
1226.38
1011.88
864.423
762.964
689.889
638.822
599.748
563.993
534.795
504.488
472.113
439.66
406.902
373.601
339.21
311.863
364.565
7003.65
11274.2
10347.5
8290.37
6474.5
5301.09
4531.23
3968.81
3485.49
3017.09
2534.8
2076.11
1665.12
1332.77
1085.69
911.182
789.704
705.363
644.255
597.385
559.195
527.494
495.605
464.756
432.677
400.794
368.206
334.399
308.859
362.62
7294.27
11917
10950.5
8727.13
6791.69
5548.16
4753.29
4178.11
3692.48
3224.98
2740.81
2267.15
1829.9
1460.11
1175.45
969.554
826.331
725.795
652.403
597.045
555.782
521.008
489.334
458.241
426.604
395.494
363.166
330.151
306.381
360.893
7594.65
12625.3
11607.6
9227.71
7165.71
5852.52
5027.65
4433.98
3941.27
3467.92
2978.67
2490.41
2026.09
1618.32
1292.03
1050.32
878.493
756.281
668.454
603.3
556.589
517.617
484.819
452.525
421.964
391.047
359.159
326.825
304.853
359.876
7927.16
13352.1
12306.3
9793.36
7599.31
6207.76
5347.51
4735.48
4230.6
3750.58
3254.02
2749.93
2256.95
1809.81
1439.98
1156.31
949.012
799.308
692.152
615.292
559.78
515.939
480.806
448.415
417.94
386.859
355.425
323.918
303.813
358.981
8255.8
14109.4
13064.4
10435.5
8100.52
6622.44
5720.22
5084.85
4563.7
4074.64
3570.23
3049.7
2530.92
2047.9
1631.29
1297.91
1045.24
860.36
727.457
633.603
567.093
517.516
478.486
445.709
414.645
383.302
352.238
321.511
303.105
358.117
8584.29
14889.3
13898.4
11158.8
8691.38
7111.66
6154.77
5486.4
4943.29
4442.36
3929.4
3396.12
2856.9
2338.54
1871.71
1480.58
1172.08
942.434
776.529
660.752
580.02
521.749
478.692
444.605
411.383
380.023
349.089
319.139
302.504
358.519
8880.89
15699.8
14792.9
11973.3
9386.6
7690.22
6661.26
5948.59
5373.12
4854.4
4326.44
3782.88
3229.1
2677.91
2161.22
1707.82
1335.67
1051.05
844.231
699.928
600.732
530.325
481.733
443.939
408.66
376.696
345.88
316.766
301.978
359.122
9175.25
16511.2
15750.6
12885
10189.1
8370.13
7250.38
6477.51
5854.85
5308.76
4758.92
4203.09
3633.35
3053.38
2492.99
1979.96
1540.93
1191.97
935.658
755.388
631.174
545.598
487.715
443.784
406.514
373.391
342.591
313.775
300.958
359.47
9471.08
17348.8
16773.6
13884.7
11095.5
9158.45
7931.1
7074.1
6394.48
5806.05
5230.73
4659.65
4068.53
3460.56
2863.6
2297.68
1793.36
1375.23
1059.1
832.585
675.86
568.894
497.458
446.129
405.408
370.996
339.513
311.228
300.197
358.883
9817.86
18212.8
17836.1
14964.9
12104.1
10053.5
8704.19
7736.99
6990.4
6346.32
5747.23
5154.14
4541.5
3907.31
3276.27
2662.84
2096.8
1607.82
1220.5
937.303
737.541
601.326
512.114
451.57
406.217
369.65
336.902
310.43
300.613
360.136
10136.8
19119.9
18916.1
16111.2
13209.9
11049.9
9565.23
8473.17
7643.77
6941.7
6311.02
5689.08
5049.99
4392.08
3728.52
3074.67
2450.66
1892.13
1426.74
1073.32
818.803
645.398
533.128
460.544
409.097
369.341
336.07
310.108
301.516
362.107
10432.2
20018.6
19993.7
17311
14411
12145.7
10511.3
9289.65
8362.36
7600.77
6925.63
6267.33
5596.76
4914.93
4223.71
3532.5
2853.67
2228.34
1681.67
1245.48
924.936
704.925
563.503
473.225
413.508
370.127
335.957
310.367
302.472
364.666
10679.1
20866
21067.5
18552.2
15705.2
13335.2
11552.2
10200
9172.08
8335.41
7599.5
6894.4
6189.97
5482.86
4763.06
4034
3309.05
2617.82
1990.87
1464.35
1065.26
786.411
607.06
492.965
421.411
372.7
336.633
310.903
303.549
367.549
10949.9
21608.6
22117.7
19796.8
17062.6
14612.7
12702.3
11225.3
10088.1
9158.48
8342.61
7577.22
6832.16
6097.37
5344.02
4579.78
3809.23
3056.71
2356.43
1739.6
1249.83
897.02
666.937
522.542
433.904
377.268
338.831
312.369
305.33
370.985
11198.7
22272.7
23133.9
21026.1
18448.9
15982.7
13971.5
12385.7
11127.6
10087
9169.49
8328.68
7531.61
6755.37
5967.2
5168.8
4357.03
3548.95
2779.87
2076.18
1486.47
1044.46
749.929
563.488
451.895
384.446
341.534
313.297
307.563
375.122
11387.1
22759.7
24004.8
22210.2
19833
17451.5
15382.7
13703.2
12315.2
11141.7
10098.4
9161.09
8298.72
7465.24
6632.93
5798.3
4949.89
4093.81
3255.99
2472.16
1779.02
1235.34
859.885
620
477.47
395.348
345.77
315.107
309.225
378.736
11491.5
23199.3
24661.9
23291.7
21195.6
19020.2
16962.9
15189.8
13660.5
12338.2
11157.8
10100.9
9147.98
8238.93
7347.33
6467.8
5579.31
4677.01
3774.84
2915.62
2128.54
1475.5
1002.48
694.744
512.226
410.35
351.974
318.213
311.316
382.836
11625.7
23362.9
25017.7
24175.9
22536.2
20690.2
18730.1
16871.6
15193.7
13709.3
12376
11178.7
10103.5
9095.48
8126.87
7184.7
6243.38
5289.64
4326.83
3399.2
2528.92
1766.43
1182.21
791.94
557.979
429.477
359.326
320.985
312.825
386.762
11677.6
23455.3
25053.6
24801.8
23858.8
22472.7
20698.8
18769
16945.7
15293.6
13789.8
12428.1
11195.1
10060.4
8988.77
7958.43
6946
5929.85
4907.86
3916.62
2964.73
2101.38
1401.26
915.614
616.668
452.071
366.639
322.643
313.039
390.016
11784.6
23133.3
24706
25100.8
25127.3
24382.7
22873
20911.1
18959.4
17131.8
15432.4
13871.7
12453.9
11156.3
9948.12
8798.09
7692.32
6604.81
5521.57
4464.62
3432.05
2479.91
1669.9
1073.15
693.352
481.677
376.147
324.496
312.145
392.964
11612.6
22741.9
24205
25348.7
26462.9
26470.2
25281.9
23339.5
21275.7
19256.7
17329.7
15541.3
13906.3
12402.8
11019
9714.57
8493.03
7322.38
6167.61
5039.86
3935.14
2907.99
1992.26
1275.63
797.951
525.219
390.86
329.054
312.101
395.886
11040.1
22916.8
24182.8
25880.7
27990.2
28767.9
27944.8
26082.1
23925.8
21701.9
19518.5
17462
15571.7
13819.7
12212.8
10721.4
9355.75
8074.44
6840.74
5646.76
4483.8
3384.83
2367.7
1528.36
935.051
583.949
411.784
336.14
313.914
398.782
366.865
316.82
349.304
386.989
422.396
457.554
490.634
521.591
548.156
572.435
598.123
626.051
660.504
709.267
781.587
891.556
1061.22
1319.2
1687.91
2155.24
2675.69
3187.46
3691.52
4247.02
5004.25
6129.88
7717.88
9312.69
9621.42
6236.98
365.127
314.712
345.094
381.342
416.848
451.467
485.851
516.262
545.72
575.059
603.796
639.732
682.338
739.97
822.435
948.592
1136.69
1413.1
1793.04
2251.51
2743.9
3238.91
3733.4
4297.5
5063.86
6229.14
7916.25
9683
10170.7
6434.77
363.003
311.276
339.162
373.957
408.254
441.928
475.17
505.417
534.002
566.363
599.054
639.644
691.256
760.79
858.759
1002.68
1213.05
1511.52
1899.02
2348.91
2833.56
3315.76
3808.66
4373.13
5139.31
6331.59
8116.97
10032.4
10804.3
6724.82
361.269
308.522
334.044
368.573
401.782
435.06
467.25
497.7
527.561
561.125
598.743
645.373
706.914
790.158
907.148
1076.39
1316.53
1643.02
2046.86
2498.31
2974.62
3447.53
3937.4
4510.85
5298.29
6539.4
8440.21
10538
11415.2
7077.8
359.536
305.978
329.449
363.625
396.492
428.846
460.47
491.346
522.161
557.584
600.13
653.183
725.491
824.098
962.661
1162.03
1439.34
1800.46
2230.94
2694.35
3168.43
3640.26
4131.2
4722.57
5541.18
6832.68
8863.15
11135.7
12056.4
7365.71
358.607
304.196
326.611
359.759
392.301
424.094
455.524
487.301
519.811
558.224
606.256
668.766
754.938
873.432
1039.02
1271.61
1589.87
1988.85
2445.12
2924.53
3407.45
3885.87
4379.49
4977.55
5834.43
7200.57
9347.49
11782.5
12762.3
7664.82
358.023
303.28
324.544
356.408
388.884
420.421
451.728
484.674
519.355
561.598
616.703
691.823
795.836
939.883
1139.18
1411.23
1772.03
2210.39
2694.17
3191
3682.56
4165.7
4678.02
5300.07
6186.38
7618.36
9884.84
12464.2
13488.2
8003.43
357.977
303.211
322.43
353.631
385.867
418.079
449.658
482.715
521.569
569.531
634.708
725.541
853.428
1031.29
1273.72
1594.14
1999.56
2473.61
2985.01
3500.11
4001.22
4490.81
5016.43
5665.16
6599.84
8132.89
10520.1
13215.5
14246.2
8330.99
357.581
302.637
320.282
350.445
382.193
414.98
447.389
482.655
525.868
581.954
660.131
771.633
930.745
1151.95
1447.96
1826.26
2282.41
2792.14
3323.6
3854.76
4367.56
4867.45
5413.44
6094.15
7084.29
8728.31
11243.9
14049.3
15028.4
8666.59
356.719
302.118
318.217
347.908
378.711
411.816
446.433
485.03
534.003
600.887
697.089
834.971
1033.5
1307.78
1666.4
2108.23
2617.06
3162.47
3710.73
4253.37
4780.66
5298.68
5874.76
6596.08
7659.89
9425.2
12057.6
14947.6
15845.4
8970.39
356.597
300.808
315.451
344.982
376.229
409.284
446.802
490.158
548.098
629.857
750.019
922.207
1168.89
1505.03
1930.71
2434.75
2991.82
3570.08
4134.23
4685.58
5231.78
5778.75
6402.19
7180.02
8336.38
10223.8
12959.6
15900.6
16662.5
9272.05
357.586
300.878
313.913
342.279
374.007
408.68
449.052
499.344
570.403
672.462
824.317
1040.9
1345.98
1751.15
2244.19
2802.84
3398.71
4005.09
4590.69
5158.03
5723.73
6307.85
6993.04
7853.78
9117.13
11124.6
13950.2
16912.2
17505.4
9583.18
358.579
301.185
312.714
340.724
372.84
409.555
454.018
513.928
601.324
732.066
924.789
1198.71
1573.3
2051.15
2608.56
3216.43
3847.62
4480
5090.18
5680.89
6271.52
6901.39
7652.45
8623.26
10005.7
12130
15032
17982.3
18376.1
9932.81
360.024
301.772
312.168
339.734
372.742
412.421
462.869
534.653
644.226
811.428
1057.22
1401.92
1855.82
2406.08
3023.05
3674.81
4336.7
4994.98
5632.64
6253.78
6879.57
7562.35
8389.37
9484.37
11004.6
13238
16188.6
19078.5
19290.3
10260.5
362.042
302.842
312.455
339.559
373.855
416.828
475.962
564.057
701.551
914.936
1226.23
1653.42
2193.23
2815.14
3487.9
4176.71
4866.21
5547.86
6217.52
6876.54
7549.47
8296.06
9211.36
10435.9
12105.4
14438.8
17392.6
20163.1
20207.7
10565.9
365.213
304.79
313.883
340.364
376.33
424.342
493.545
604.225
778.212
1048.92
1438.63
1957.8
2583.92
3277.95
4001.63
4726.68
5443.67
6147.55
6848.52
7552.26
8285.58
9108.12
10126.4
11483.7
13304.6
15733.6
18640.1
21234.6
21076.5
10826.1
369.45
307.336
315.315
342.674
380.698
435.64
519.361
658.555
880.514
1222.49
1702.98
2317.09
3023.45
3785.37
4556.36
5318.19
6066.08
6794.98
7532.41
8292.77
9101.84
10013
11138
12630.9
14594.4
17103.3
19899.9
22291.3
21840.6
11109.6
372.884
309.065
316.658
345.792
387.735
450.805
556.134
732.971
1016.71
1444.45
2026.03
2731.31
3510.19
4330.62
5143.87
5942.71
6726.61
7495.91
8277.93
9106.87
10017.4
11042.5
12284.7
13889.9
15971.4
18509.2
21150
23317.4
22524.9
11374.3
376.813
311.337
318.889
348.903
396.879
472.514
605.175
831.03
1191.58
1719.01
2405.79
3194.91
4042.25
4907.2
5760.72
6598.99
7429.4
8255.05
9101.31
10020.7
11053
12214.4
13590.7
15294.5
17443.4
19916
22360.3
24214.1
23030.8
11569.8
380.923
312.842
320.912
353.591
408.914
502.464
670.776
958.446
1411.09
2047.81
2830.55
3691.68
4604.58
5511.18
6408.87
7294.63
8185.56
9088.49
10027.5
11063.2
12229.6
13542.9
15065
16861.4
19011.8
21300.9
23472.8
24907.8
23485.7
11690.2
384.066
312.354
321.448
359.099
423.731
541.174
755.244
1119.58
1676.86
2423.41
3291.23
4219.06
5186.11
6143.25
7097.04
8046.65
9015.54
10021.7
11082.5
12258.3
13573.7
15051.3
16731.9
18624.7
20675.4
22659.2
24386.5
25294.7
23672.6
11836.2
386.79
312.112
322.741
365.073
442.289
590.022
862.479
1316.02
1982.86
2830.4
3776.61
4772
5792.82
6812.06
7839.16
8876.07
9948.98
11088.7
12304.4
13647.9
15134.7
16778.6
18608.2
20574.8
22460.1
24001.2
25049.9
25361.6
23787.3
11899.3
389.498
312.797
325.955
374.075
468.437
654.421
998.584
1552.61
2327.29
3260.89
4281.83
5342.47
6426.64
7522.83
8643.51
9800.2
11012.6
12319.5
13727.2
15261.9
16946.3
18767.2
20732.8
22737.7
24376.7
25307.4
25407.5
25042.9
23483.9
12025.1
392.284
314.012
330.566
387.23
504.028
740.421
1172.04
1838.85
2717.33
3725.8
4813.45
5938.01
7095.89
8283.33
9518.81
10831.3
12225.7
13738.2
15384.1
17135.9
19041.3
21054.9
23140.7
25139.2
26475.8
26682
25695.6
24555.2
23100
11866.3
395.257
315.58
336.385
404.584
551.062
852.14
1387.93
2172.12
3151.59
4230.66
5380.38
6572.33
7819.74
9114.76
10490.7
11989.9
13610.1
15373.6
17300.1
19314.8
21459.3
23677.8
25864.7
27804.5
28802.7
28263.7
26271.6
24558.4
23263.1
11302.7
12005.1
12423.5
12967.1
13641.2
14406.5
15241.8
16141.3
17084.8
18054
19035.5
20015.9
20985.5
21937.7
22867.3
23770.1
24641.6
25477.8
26277.3
27044.7
27787.6
28509.9
29212.2
29891.7
30568.4
31241.9
31903.8
32538.1
33150.2
33737.5
34295.8
34822
35313.3
35766
36178.3
36549.7
36879.4
37166.6
37426.8
37681.9
37895.5
38071.3
38195.4
38262.5
38265.1
38195.3
38043.1
37825
37528.4
37142
36660
36081.5
35422.8
34683.7
33862.6
32962.3
31989.3
30957.5
29874.9
28745.4
27572.7
26360.9
25116.9
23847.2
22560.9
21277.7
20033.6
18823.8
17646.6
16506.1
15403.9
14342.6
13323.9
12350.1
11422.6
10542.3
9709.31
8924.56
8187.9
7495.78
6848.32
6247.4
5692.55
5183.77
4717.47
4286.14
3885.61
3513.59
3168.95
2850.02
2554.73
2281.75
2029.49
1797.01
1584.57
1392.43
1220.51
1068.85
937.41
825.822
732.764
656.819
596.239
549.095
513.013
486.006
466.029
451.318
441.452
434.836
430.341
427.703
426.27
425.55
425.43
425.483
425.471
424.853
423.494
421.183
418.068
414.309
410.576
406.858
401.868
398.346
32500.6
33573.8
34960.3
36647.9
38514.7
40546.3
42695.4
44930.9
47213.4
49514.5
51807.7
54075.7
56308.2
58497.4
60636.8
62720.7
64744.3
66707.4
68618
70487.6
72323.4
74128.4
75897.3
77629.6
79314.6
80951.7
82543.6
84084.1
85562.7
86972
88306.3
89560.7
90730.6
91813.1
92806.4
93707.5
94516
95232.3
95841.3
96328.3
96699.3
96944.6
97051.5
97006.8
96798.5
96420.8
95816.4
95026.5
94028.6
92814.3
91388.9
89767.1
87962.2
85975.2
83816.4
81503.3
79061.8
76507.6
73847.1
71086.8
68236.3
65309.6
62315.8
59259.2
56140.2
52951.6
49745.9
46592.3
43545.1
40599.5
37767.3
35050.6
32458.1
29996.9
27671.1
25484
23440.6
21543.4
19786
18166.4
16686.1
15341.7
14122
13011.6
11994.4
11055.1
10183.6
9371
8609.49
7890.03
7206.46
6553.75
5928.63
5331.12
4762.54
4224.6
3720.41
3251.49
2819.73
2427.11
2075.44
1765.12
1495.39
1264.49
1069.26
907.708
775.094
669.602
586.581
521.44
471.921
434.891
406.78
386.187
372.024
363.721
360.023
357.184
352.205
345.03
337.684
331.194
326.347
320.841
317.58
48661.1
50173.5
52122.7
54422.4
56974.7
59714
62584.4
65540.7
68538.6
71542.3
74525.2
77471.2
80371.5
83219.8
86011.3
88742.8
91414.2
94030.9
96602.8
99138.4
101642
104118
106547
108928
111257
113537
115763
117919
119993
121975
123860
125640
127314
128879
130333
131674
132899
134001
134967
135784
136447
136941
137248
137353
137239
136878
136248
135350
134177
132723
130999
128955
126690
124189
121461
118530
115419
112155
108734
105155
101430
97578.2
93613.5
89543.1
85377.7
81136.4
76840.9
72510.1
68148.1
63825.1
59652.7
55623.1
51758.3
48070.4
44565.1
41246
38119.6
35189.1
32451.9
29906.4
27551
25382
23389.1
21559.4
19875.4
18322.6
16890.2
15566.5
14339.6
13200
12138.5
11147.7
10220.2
9351.96
8539.43
7778.35
7066.2
6398.48
5773.14
5187.44
4639.76
4128.46
3651.99
3210.69
2803.18
2431.81
2093.48
1793.57
1530.12
1300.63
1107.52
947.313
815.219
708.384
624.55
562.032
517.591
484.395
454.449
426.466
401.173
381.151
366.88
353.625
343.706
65595.9
67498.1
69904.8
72713.6
75815.8
79119.4
82557.5
86077.6
89633.5
93189.3
96721.2
100216
103666
107068
110421
113726
116988
120214
123415
126596
129759
132892
135970
138994
141966
144886
147744
150513
153181
155740
158185
160513
162719
164802
166759
168588
170284
171840
173242
174479
175534
176386
177013
177393
177499
177306
176794
175956
174787
173288
171454
169288
166823
164077
161066
157810
154255
150534
146600
142437
138053
133466
128703
123760
118646
113385
108026
102589
97091.1
91556.4
85981.9
80461.8
75110
69995
65102.9
60457.6
56065.2
51928.7
48049.4
44425.3
41052.3
37923.3
35025.8
32346.6
29870.6
27583.2
25470.8
23519.9
21715.8
20046.2
18499.5
17062.8
15728.4
14488.2
13336.2
12265.1
11269.1
10340.8
9475.06
8666.2
7910.12
7201.89
6535.56
5908.7
5317.61
4763.38
4241.38
3756.7
3305.7
2886.59
2506.6
2164.98
1858.48
1587.19
1357.35
1169.15
1016.49
889.527
779.347
682.896
602.635
540.099
492.653
455.042
426.674
83907.4
86188.2
89007.6
92271.5
95860.8
99658
103590
107599
111640
115682
119705
123698
127657
131583
135478
139351
143208
147058
150908
154760
158608
162425
166175
169856
173480
177046
180533
183914
187175
190311
193320
196199
198947
201558
204029
206358
208545
210581
212457
214156
215654
216926
217943
218676
219095
219174
218894
218244
217220
215823
214055
211927
209464
206685
203609
200240
196574
192638
188422
183903
179073
173855
168428
162735
156760
150533
144144
137608
130938
124174
117375
110565
103769
97018.3
90441.2
84218.1
78311
72731.9
67484.9
62560.7
57961.5
53678.4
49698.7
46009
42591.7
39428.4
36499.7
33786
31269.5
28935.1
26768.6
24755.6
22885.6
21148.7
19536.2
18035.6
16640.5
15340.9
14131.9
13005.9
11954.7
10972.4
10052.6
9191.47
8383.21
7625.21
6912.71
6246.7
5617.48
5023.99
4472.16
3964.92
3487.81
3043.43
2647.32
2303.82
2006.66
1739.8
1497.74
1275.39
1079.39
918.507
791.246
690.469
611.747
103146
105794
108992
112668
116691
120926
125293
129734
134207
138685
143152
147603
152039
156466
160890
165323
169773
174246
178745
183265
187791
192275
196683
200971
205184
209324
213361
217275
221049
224684
228174
231515
234703
237737
240617
243345
245926
248360
250635
252732
254622
256273
257652
258726
259461
259831
259821
259423
258634
257459
255902
253973
251688
249063
246112
242839
239248
235336
231083
226466
221453
216031
210238
204075
197516
190517
183234
175771
168067
160167
152169
144127
136073
128051
120132
112288
104659
97398.1
90571.5
84159.4
78170.7
72588.4
67396.1
62570.9
58093.3
53940.7
50088.4
46510.6
43183.7
40085.7
37198.5
34505.5
31991.6
29644.3
27451.8
25403.7
23490.9
21705.3
20039.3
18482.4
17029
15673.7
14409.5
13228.1
12122.6
11090.1
10126.4
9228.38
8383.52
7587.92
6841.56
6152.3
5502.81
4892.69
4337.13
3850.28
3416.61
3013.64
2635.25
2277.74
1940.3
1639.15
1383.2
1168.74
992.757
122543
125539
129080
133120
137517
142122
146852
151652
156485
161331
166179
171030
175890
180768
185673
190615
195601
200630
205697
210787
215881
220906
225839
230626
235251
239774
244165
248400
252468
256364
260086
263626
266983
270161
273168
276019
278732
281313
283754
286029
288104
289944
291513
292767
293674
294219
294395
294204
293657
292760
291516
289922
287985
285714
283120
280212
276987
273425
269479
265103
260271
254970
249205
242977
236292
229130
221560
213651
205368
196679
187711
178693
169569
160396
151333
142380
133553
124893
116477
108446
100979
94015.4
87537.9
81530
75960
70794.6
65997.7
61532.3
57362.9
53463.6
49809.2
46378.5
43153.1
40117.6
37259.3
34570
32041.5
29665.9
27435.4
25345.1
23389.1
21557.6
19839.1
18233.2
16732.8
15333.6
14029.1
12815.4
11681.8
10620.1
9625.03
8702.42
7842.22
7041.23
6315.01
5680.31
5101.27
4552.69
4043.37
3564.95
3103.19
2671.26
2287.21
1945.6
1644.72
141263
144570
148389
152717
157398
162271
167258
172310
177396
182503
187629
192778
197958
203175
208436
213740
219093
224483
229894
235307
240691
245990
251134
256084
260839
265418
269810
273985
277907
281595
285048
288277
291286
294091
296717
299198
301563
303830
305993
308024
309875
311509
312880
313938
314665
315077
315194
315043
314652
314030
313160
312030
310640
308989
307082
304925
302501
299765
296631
293031
288940
284336
279205
273544
267358
260649
253464
245828
237738
229157
220159
210873
201305
191361
181485
171687
161941
152346
143022
133998
125256
116969
109252
102143
95565.4
89470.9
83806.4
78512.7
73544.7
68869
64454.7
60275.2
56310.5
52546.2
48975.4
45589
42379.2
39339.9
36463.9
33748.8
31189.4
28778.1
26508.4
24379.5
22384.8
20519.6
18778
17157.1
15646.3
14237.5
12922.7
11701.5
10573
9532.68
8597.03
7774.85
7007.19
6286.73
5626.24