/*--------------------------------*- C++ -*----------------------------------*\
| =========                 |                                                 |
| \\      /  F ield         | OpenFOAM: The Open Source CFD Toolbox           |
|  \\    /   O peration     | Version:  2112                                  |
|   \\  /    A nd           | Website:  www.openfoam.com                      |
|    \\/     M anipulation  |                                                 |
\*---------------------------------------------------------------------------*/
FoamFile
{
    version     2.0;
    format      ascii;
    arch        "LSB;label=32;scalar=64";
    class       volScalarField;
    location    "0.00875";
    object      T;
}
// * * * * * * * * * * * * * * * * * * * * * * * * * * * * * * * * * * * * * //

dimensions      [0 0 0 1 0 0 0];

internalField   nonuniform List<scalar> 
13875
(
1412.01
1535.57
1482.4
1487.59
1482.04
1483.71
1484.4
1483.54
1484.88
1484.84
1484.19
1484.16
1483.5
1483.91
1483.84
1483.86
1483.44
1484.72
1484.87
1483.12
1481.88
1487.68
1480.54
1532.6
1397.32
1307.02
1356.17
1318.9
1322.09
1316.59
1318.03
1322.24
1323.08
1324.3
1324.05
1323.27
1323.06
1318.01
1317.68
1318.36
1322.76
1322.95
1323.47
1322.31
1317.82
1316.7
1321.91
1319.6
1356.16
1304.21
1307.23
1340.05
1314.27
1311.71
1305.19
1305.42
1305.27
1304.4
1306.25
1306.99
1305.56
1305.92
1303.77
1304.04
1303.9
1305.78
1303.9
1305.91
1306.04
1305.09
1304.86
1311.06
1311.35
1336.43
1297.81
1317.36
1344.78
1314.62
1308.64
1305.91
1305.83
1304.25
1303.61
1304.47
1304.31
1302.99
1303.7
1303.87
1304.08
1304.05
1303.44
1302.41
1303.47
1304.19
1305.49
1305.35
1307.69
1313.96
1343.77
1311.51
1329.52
1342.1
1315.69
1312.29
1304.82
1305.18
1304.78
1303.85
1304.72
1304.34
1302.99
1303.53
1303.77
1304.23
1303.82
1303.28
1302.5
1303.97
1305.2
1304.88
1304.75
1311.76
1311.99
1338.3
1315.69
1332.2
1351.13
1318.79
1309.85
1307.81
1306.83
1304.39
1303.83
1304.73
1304.41
1303.22
1303.88
1304.1
1304.51
1304.3
1303.54
1302.62
1303.51
1304.25
1306.56
1307.27
1308.43
1319.02
1349.02
1326.13
1338.98
1360.46
1329.01
1317.42
1307.91
1307.04
1305.92
1304.73
1305.43
1304.54
1303.44
1303.8
1304.35
1304.83
1304.22
1303.57
1303.16
1304.57
1306.18
1306.51
1307.79
1317.61
1325.69
1358.14
1321.57
1359.72
1384.68
1344.02
1321.18
1316.41
1310.2
1306.49
1305.03
1305.68
1304.95
1303.99
1304.63
1305.11
1305.5
1305.21
1304.17
1303.74
1304.93
1306.15
1309.98
1315.3
1320.38
1341.5
1380.93
1350.53
1537.2
1508.42
1387.15
1350.38
1322.18
1315.83
1310.91
1307.81
1307.36
1306.37
1305.34
1305.72
1306.39
1306.83
1306.32
1305.64
1305.61
1307.26
1310.53
1314.21
1321.31
1349.21
1382.71
1505.66
1521.66
1834.89
1574.36
1427.14
1358.74
1338.57
1320.48
1313.33
1310.34
1310.33
1309.23
1308.2
1308.41
1309.07
1309.5
1309.16
1308.58
1308.82
1310.92
1314.08
1320.57
1337.05
1357.17
1424.86
1566.57
1826.76
2507.2
1805.01
1517.87
1407.76
1350.44
1331.48
1324.79
1318.07
1316.82
1314.83
1313.8
1313.71
1314.3
1314.82
1314.69
1314.61
1315.15
1317.69
1326.1
1330.01
1348.68
1419.4
1502.14
1797.85
2429.2
2812.61
2302.38
1736.21
1463.65
1426.18
1360.54
1339
1332.56
1329.76
1326.87
1325.76
1325.44
1325.69
1326.2
1326.3
1326.91
1328.2
1331.77
1339.69
1371.44
1405.44
1457.29
1731.46
2306.3
2837.39
2786.8
2657.24
2351.56
2198.84
1521.82
1413.57
1396.3
1373.72
1364.4
1357.48
1354.79
1353.69
1353.37
1353.92
1354.68
1357.56
1363.58
1374.88
1399.54
1421.68
1567.38
2233.9
2245.8
2687.32
2766.62
2723.27
2662.76
2744.41
2784.73
2046.4
1824.26
1521.42
1477.65
1459.11
1447.28
1443.46
1441.82
1441.42
1442.02
1443.19
1447.73
1458.79
1478.86
1541.63
1922.6
2100.95
2805.44
2792.5
2703.12
2701.69
2583.01
2640.32
2686.45
2686.96
2586.95
2359.5
2028.86
1964.26
1865.26
1766.22
1731.81
1720.39
1716.68
1718.19
1724.78
1749.04
1840.61
1961.87
1984.16
2420.96
2637.18
2735.91
2678.25
2652.49
2626.01
2500.64
2537.23
2626.67
2682.9
2655.88
2686.28
2874.22
2940.29
2933.55
3033.33
3115.57
3138.31
3148.5
3142.38
3124.73
3057.88
2904.69
2938.75
2900.21
2717.18
2660.8
2706.15
2624.16
2558
2533.34
2314.21
2398.91
2477.42
2531.2
2603.36
2727.95
3031.38
3408.43
3592.69
3683.43
3698.14
3691.64
3688.98
3692.81
3701.72
3702.94
3599.89
3418.07
3053.51
2738.76
2615.89
2565.23
2469.55
2404.37
2329.04
2023.99
2146.72
2300.68
2611.69
2791.56
2830.51
2957.72
3308.09
3528.89
3642.65
3673.06
3672.87
3672.45
3674.98
3676.31
3648.16
3501.72
3290.08
2964.84
2843.56
2809.64
2561.14
2269.32
2140.05
2023.79
1812.68
1878.27
2010.28
2237.48
2712.54
2842.32
2878.99
3103.26
3355.91
3497.92
3543.45
3557.75
3561.65
3561.33
3548.88
3508.94
3359.36
3119.19
2918.92
2919.17
2674.71
2202.47
2007.61
1883.72
1814.43
2453.91
2340.69
2104.92
2193.2
2502.91
2691.28
2701.59
2838.38
3077.59
3279.02
3387.73
3429.83
3440.16
3432.19
3391.28
3277.87
3066.15
2850.9
2729.68
2714.95
2482.91
2221.03
2138.52
2340.39
2447.5
3261.78
3423.25
2748.15
2301.98
2374.2
2534.7
2553.09
2658.35
2881.48
3107.45
3250.66
3306.44
3315.43
3305.29
3243.88
3088.38
2853.91
2656.15
2559.56
2541.94
2358.66
2325.96
2807.74
3480.98
3266.57
3642.93
3577.92
2812.9
2211.87
2212.41
2371.25
2420.33
2522.93
2734
2963.8
3117.7
3178.25
3189.44
3172.88
3100.88
2931.16
2699.42
2521
2418.11
2369.61
2190.57
2249.23
2900.28
3629.06
3681.95
3503.16
3114.42
2485.36
2058.98
2059.78
2238.05
2311.88
2415.77
2606.17
2830.41
2989.24
3054.73
3064.93
3048.73
2972.92
2802.79
2581.06
2415.72
2299.38
2235.69
2035.92
2054.67
2472.05
3118.91
3532.25
3518.84
2958.72
2245.91
1902.88
1974.23
2140.47
2208.77
2316.69
2503.28
2716.83
2867.24
2931.32
2945.24
2925.17
2851.49
2688.96
2475.89
2318.33
2202.15
2129.88
1944.08
1893.54
2254.51
2983.87
3548.36
3455.68
2786.04
2094.47
1821.15
1929.89
2068.46
2120.28
2231.57
2408.43
2613.6
2757.92
2819.71
2829.59
2812.16
2739.09
2583.2
2380.89
2227.48
2118.53
2064.09
1896.75
1808.34
2110.9
2829.94
3482.48
3425.21
2749.22
2039.65
1826.74
1905.61
2001.39
2041.73
2149.13
2323.79
2514.43
2649.71
2707.41
2721.73
2701.94
2635.74
2490.02
2297.2
2148.85
2044.82
1999.98
1878.8
1816.79
2039.13
2765.5
3457.26
3349.92
2600.3
1963.85
1828.01
1884.06
1955.4
1976.47
2086.2
2249.71
2429.64
2553.54
2608.56
2618.18
2602.9
2538.4
2405.94
2226.29
2079.83
1978.02
1961.3
1860.19
1822.84
1971.89
2613.64
3369.77
3318.41
2562.67
1972.87
1864.25
1874.32
1906.24
1915.67
2024.32
2186.61
2350.6
2460.87
2509.22
2522.97
2504.22
2447.74
2324.48
2155.48
2018.96
1918.82
1912.58
1854.54
1850.25
1975.92
2610.19
3364.01
3313.84
2540.3
1940.38
1853.4
1843.68
1875.2
1867.74
1977.13
2122.84
2275.31
2375.37
2423.02
2431.83
2419.46
2365.47
2261.09
2106.4
1970.78
1871.39
1884.19
1832.79
1852.26
1933.24
2500.93
3286.17
3279.55
2544.92
1976.39
1890.31
1842.31
1847.64
1826.12
1930.51
2073.74
2209.75
2297.41
2336.21
2348.75
2332.55
2287.16
2189.55
2047.35
1926.88
1827.67
1865.28
1829.37
1872.64
1960
2529.94
3276.46
3189.36
2455.79
1944.81
1885.37
1802.48
1824.69
1794.44
1905.2
2027.44
2151.2
2225.12
2263.35
2269.22
2259.74
2214.79
2135.56
2006.73
1889.98
1794.2
1836.57
1805.06
1874.7
1938.47
2465
3215.86
3162.13
2453.73
1995.96
1915.07
1809.53
1801.04
1770.04
1866.33
1982.85
2091.25
2157.91
2187.4
2198.15
2185.38
2151.39
2077.17
1962.39
1866.63
1768.09
1820.4
1807.18
1890.75
1967.27
2423.97
3156.48
3096.39
2399.58
1994.35
1892.92
1780.95
1771.72
1744.79
1850.87
1946.3
2044.82
2097.14
2127.01
2130.18
2124.13
2088.52
2034.27
1929.16
1836.95
1743.74
1782.95
1790.04
1889.1
1968.61
2392.01
3115.86
3052.7
2373.08
2026.43
1916.51
1805.05
1757.61
1733.42
1825.23
1909.7
1993.65
2040.77
2061.54
2070.39
2059.99
2034.73
1980.85
1889.9
1820.89
1723.67
1772.26
1797.24
1900.67
2016.37
2381.74
3082.82
3020.29
2341.11
2016.43
1906.85
1784.84
1727.68
1702.55
1811.2
1876.8
1952.98
1987.69
2011.51
2012.74
2010.04
1982.12
1949
1863.34
1802.32
1698.87
1738.04
1796.98
1905.15
2018.84
2340.26
3032.87
2996.69
2330.91
2021.49
1927.61
1804.08
1732.54
1698.82
1788.45
1847.36
1908.16
1940.53
1955.14
1962.93
1954.56
1935.09
1897.03
1832.2
1790.23
1684.84
1732.81
1807.33
1924.48
2023.25
2343.3
3009.67
2947.84
2284.82
2007.3
1940.4
1791.85
1716.25
1672.31
1776.52
1819.33
1877.21
1896.04
1914.75
1913.88
1913.5
1891.17
1874.32
1802.61
1769.86
1662.79
1720.04
1794.82
1941.77
2007.34
2300.76
2968.86
2936.86
2295.3
2013.04
1982.19
1816.87
1731.78
1673.91
1758
1791.13
1834.41
1855.73
1866.18
1872.43
1865.83
1852.03
1825.3
1780.5
1763.93
1661.71
1726.15
1816.11
1978.5
2012.44
2283
2935.81
2903.19
2273.59
1991.92
1992.62
1816.07
1715.85
1655.65
1747.32
1763.68
1810.48
1819.18
1834.15
1831.42
1833.18
1815.25
1809.61
1745.78
1740.99
1649.08
1715.36
1814.91
1995.95
1978.84
2273.61
2897.95
2857.04
2265.42
1975.97
1992.85
1848.06
1747.95
1675.39
1737.38
1742.64
1770.36
1784.79
1792.55
1796.66
1792.04
1780.83
1762.5
1729.26
1738.21
1659.54
1737.29
1841.13
1988.42
1966.77
2263.13
2871.01
2831.77
2256.91
1946.88
1985.05
1889.08
1734.85
1663.87
1726.35
1716.57
1753.07
1754.51
1766.35
1762.14
1766.11
1751.73
1755.18
1694.88
1718.74
1666.03
1725.31
1872.95
1987.9
1938.11
2241.77
2839.84
2797.22
2249.6
1937.15
1975.71
1926.66
1770.05
1704.18
1731.31
1704.96
1717.24
1724.41
1729.66
1732.65
1730.47
1720.24
1713.44
1689.57
1726.42
1692.37
1765.92
1938.15
1976.99
1937.92
2255.65
2801.3
2768.62
2227.18
1916.01
1961.4
1926.81
1790.25
1703.89
1728.38
1683.63
1707.35
1701.11
1708.95
1703.37
1709.29
1697.88
1711.19
1657.87
1712.39
1700.01
1772.74
1934.63
1966.64
1920.15
2244.18
2763.57
2736.38
2225.26
1915.63
1929.56
1915.96
1848.41
1743.16
1748.61
1688.93
1679.05
1675.07
1677.01
1678.3
1677.88
1670.56
1679.66
1671.66
1734.46
1728.9
1829.12
1930.45
1944.37
1922.56
2218.32
2733.03
2715.66
2211.9
1903.43
1906.28
1902.82
1896.86
1759.35
1747.16
1676.39
1680.78
1659.42
1661.16
1653.65
1661.66
1655.15
1686.29
1653.06
1728.61
1755.26
1898.95
1916.19
1917.73
1902.04
2214.08
2717.64
2676.55
2193.68
1901.67
1884.75
1877.7
1886.85
1824.06
1770.99
1702.37
1664.88
1642.94
1635.05
1633.76
1635.24
1634.58
1659.84
1679.48
1757.83
1811.78
1897.19
1897.91
1894.28
1904.94
2202.56
2689.07
2658.85
2192.58
1894.36
1863.7
1848.95
1870.08
1902.49
1793.18
1691.07
1682.1
1641.61
1629.51
1617.12
1628.9
1636.48
1686.53
1664.22
1771.66
1888.02
1878.91
1865.74
1874.04
1885.92
2188.66
2666.27
2609.14
2172.1
1890.98
1856.49
1826.89
1859.74
1892.46
1854.57
1730.52
1670.34
1636.37
1613.56
1604.59
1612.33
1625.64
1667.45
1712.42
1829.03
1897.86
1867.11
1841.92
1858.67
1896.49
2180.38
2612.94
2568.1
2154.54
1874.47
1842.38
1803.41
1822.73
1873.56
1942.21
1735.56
1699.41
1647.06
1630.71
1605.32
1628.63
1639.26
1702.43
1710.75
1922.31
1879.64
1827.14
1819.11
1852.59
1884.12
2159.51
2572.32
2398.37
2107.02
1854.51
1830.06
1788.66
1798.84
1856.28
1923.36
1826.82
1708.99
1647.99
1615.78
1608.1
1613.62
1631.4
1702.24
1798.43
1924.73
1861.99
1800.78
1800.44
1843.8
1865.34
2103.51
2394.43
893.248
844.89
841.089
809.63
790.097
741.738
698.725
644.093
589.886
535.031
492.034
461.608
439.76
426.038
416.582
410.53
406.969
405.071
404.53
404.164
403.758
403.292
402.629
401.95
400.683
398.48
394.602
389.677
383.515
376.897
905.383
892.471
901.265
885.274
866.001
816.31
766.766
707.18
644.192
574.056
514.94
475.031
449.4
434.749
426.31
421.955
419.301
418.289
417.618
417.252
416.422
415.215
413.985
412.737
410.779
407.873
402.935
397.17
390.04
383.388
920.539
915.832
929.275
917.293
894.481
842.923
790.104
731.263
665.837
596.493
536.196
493.229
464.494
448.297
439.362
433.636
429.213
426.77
424.999
423.546
422.028
420.49
418.769
417.242
415.246
411.811
406.592
400.753
394.009
387.297
950.812
958.746
979.437
971.823
938.972
881.763
822.446
761.98
698.388
626.795
561.575
515.62
483.712
465.489
454.715
447.384
442.241
439.386
437.197
435.029
432.466
430.07
427.776
425.62
423.239
419.464
414.295
408.247
401.084
394.1
982.373
992.242
1012.52
1001.24
960.642
898.844
834.954
772.694
712.362
648.528
587.645
540.152
506.658
485.274
471.368
461.688
454.604
450.104
446.458
442.93
439.251
436.054
433.276
430.597
428.106
424.636
419.813
414.035
407.357
399.281
1002.45
1027.03
1046.86
1032.23
981.853
910.708
841.188
776.008
716.827
657.163
604.571
560.318
526.534
502.74
486.807
475.825
467.884
462.291
456.841
452.224
447.825
443.835
440.525
437.57
434.722
431.292
426.415
420.674
413.91
407.153
1030.72
1059.65
1076.92
1056.92
997.06
919.003
844.486
776.941
717.782
659.407
612.425
574.198
542.499
517.952
500.803
488.155
478.783
471.439
464.782
459.026
454.154
449.649
445.912
442.627
439.63
435.83
431.301
425.921
419.294
411.947
1051.07
1090.43
1105.55
1082.19
1013.31
927.655
848.384
778.116
717.712
659.867
615.319
580.494
552.464
529.106
511.691
498.58
488.277
479.874
472.45
466.026
460.677
455.951
451.83
448.319
445.039
440.623
435.992
430.966
424.564
418.936
1073.71
1119.96
1135.08
1107.31
1030.1
938.517
856.222
782.198
718.419
659.857
616.401
583.526
557.337
536.651
519.731
506.032
495.021
485.567
477.446
471.448
465.438
460.291
456.219
452.546
449.061
444.508
439.785
434.964
429.283
423.167
1097.35
1148.97
1164.75
1130.29
1048.48
954.827
868.583
790.304
720.801
661.025
617.076
584.706
559.623
540.352
524.814
511.282
500.035
490.418
482.67
476.488
470.408
465.2
461.221
457.349
453.376
448.997
444.349
439.328
434.124
428.337
1116.56
1175.81
1191.24
1152.11
1069.46
974.923
885.755
802.738
727.655
665.652
618.561
585.507
560.936
542.436
527.491
514.703
503.5
494.007
486.654
479.56
474.37
469.174
464.704
460.597
456.406
452.582
448.126
443.002
438.431
433.237
1136.88
1200.69
1215.13
1175.26
1093.36
998.626
907.428
820.865
740.158
674.618
622.985
587.584
561.897
543.412
528.837
517.242
506.935
498.504
489.886
483.054
478.168
473.871
468.79
464.698
460.679
456.88
452.941
448.242
442.295
436.497
1153.23
1223.23
1237.9
1200.38
1119.9
1026.18
934.376
845.29
757.434
688.334
631.818
592.775
564.074
544.33
529.877
519.162
509.971
501.166
492.826
486.289
481.881
477.303
472.632
468.089
463.933
460.348
456.298
451.511
445.344
440.025
1169.74
1244.16
1260.44
1226.91
1150.23
1057.33
962.312
871.539
779.973
707.612
646.068
602.2
569.161
546.731
531.401
521.028
512.442
504.13
496.268
490.066
485.489
480.683
476.519
471.764
467.733
464.181
460.01
454.916
449.1
443.763
1184.88
1264.23
1282.73
1254.35
1183.07
1092.9
996.212
900.353
807.567
732.867
666.687
616.88
578.471
551.584
533.889
522.684
514.642
507.034
499.832
493.01
487.87
483.316
479.734
475.021
470.703
466.887
462.641
457.048
451.115
446.064
1196.39
1283.07
1303.94
1282.46
1217.29
1131.01
1036.75
934.67
841.597
763.925
693.821
637.332
593.043
560.404
538.796
525.362
516.768
509.849
503.521
495.957
490.292
486.531
481.882
478.171
474.483
470.396
465.853
459.794
453.516
448.729
1208.1
1300.62
1324.22
1309.95
1251.78
1170.46
1078.43
975.236
880.285
799.518
726.478
663.553
613.191
574.253
547.183
529.771
519.51
513.286
507.276
499.379
493.08
488.619
484.123
480.723
477.723
473.454
468.336
462.123
456.424
452.142
1218.55
1316.9
1343.35
1336.3
1285.85
1210.44
1122.06
1019.42
924.078
840.239
764.837
696.135
639.199
593.712
560.273
537.324
523.968
516.602
510.446
502.771
496.215
490.837
487.103
483.485
480.147
475.796
470.717
464.635
458.808
454.517
1229.53
1331.98
1361.71
1361.08
1318.91
1250.48
1167.61
1067.74
972.372
885.939
808.273
735.318
671.945
619.822
579.043
549.049
530.389
519.864
513.037
506.039
499.256
492.98
489.258
485.388
481.64
477.299
472.075
466.167
460.835
456.802
1233.38
1345.12
1380.08
1384.55
1351.33
1290.57
1212.7
1117.75
1025.68
936.393
856.046
780.488
711.606
652.851
604.478
566.549
540.601
524.724
515.605
508.557
502.032
495.306
491.326
487.472
483.413
478.796
473.478
467.898
462.745
458.974
1242.94
1357.1
1396.89
1407.29
1382.72
1330.73
1256.98
1168.1
1080.2
992.238
907.266
830.766
758.089
693.133
637.097
590.998
556.293
532.824
519.255
511.196
504.969
498.306
493.638
489.579
485.279
480.448
475.262
469.638
464.665
460.86
1243.8
1367.73
1413.56
1428.74
1412.99
1369.9
1301.54
1219.51
1135.35
1049.26
961.853
885.052
810.239
740.103
676.63
621.915
578.273
545.799
525.801
514.36
508.176
502.198
496.061
491.381
486.748
481.88
476.803
471.231
466.497
462.783
1246.98
1378.04
1429.34
1448.33
1441.44
1407.35
1345.61
1269.86
1189.15
1106.07
1020.95
941.328
865.524
791.46
720.358
657.224
604.754
563.339
535.905
519.633
511.629
505.89
498.939
493.473
488.688
483.577
478.395
473.115
468.146
464.547
1234.38
1388.84
1445
1467.54
1468.08
1442.45
1387.62
1318.46
1241.98
1161.41
1080.11
997.406
918.962
842.891
765.912
696.6
636.801
587.434
551.091
527.733
516.119
509.402
502.534
495.985
490.65
484.487
479.122
474.303
469.791
466.285
1240.15
1416.75
1462.85
1487.6
1492.6
1474.34
1427.72
1365.3
1293.18
1215.19
1134.37
1050.32
964.936
892.058
814.151
740.632
674.425
617.575
572.089
539.917
522.399
513.206
506.171
498.549
491.743
484.793
479.461
474.863
471.05
468.129
375.162
381.773
387.66
392.422
395.82
397.452
398.726
399.958
400.4
400.954
401.495
401.733
402.286
404.749
408.572
415.38
425.933
440.879
464.058
498.333
547.414
608.92
668.405
724.618
768.24
816.035
833.787
861.91
862.264
907.892
381.612
388.262
395.217
400.729
404.966
407.459
409.239
410.859
412.085
413.295
413.93
414.215
414.756
416.635
419.8
425.427
434.684
450.691
479.675
524.963
591.573
666.861
732.69
792.813
842.842
892.105
910.7
923.022
910.824
920.937
385.786
392.384
398.936
404.564
408.926
411.818
413.761
415.632
417.474
419.175
420.641
421.667
423.291
426.887
431.278
438.034
448.563
466.502
498.713
547.679
612.93
687.298
754.642
813.974
868.091
920.221
942.905
951.417
935.101
935.619
392.533
399.393
406.408
412.304
416.79
420.043
422.242
424.626
426.896
429.354
431.797
433.755
435.824
439.095
444.471
452.362
465.565
486.701
521.916
573.864
643.219
712.225
775.258
836.817
899.745
959.801
994.655
1000.39
978.214
966.032
397.821
405.792
412.355
417.976
422.128
425.34
427.747
430.269
433.125
436.41
439.829
443.148
446.717
451.239
458.717
468.957
484.898
509.387
547.143
599.784
658.936
720.031
780.003
844.302
912.655
978.616
1021.49
1031.94
1010.74
997.49
405.482
412.35
419.051
424.643
428.924
432.181
434.769
437.349
440.822
444.81
449.103
453.673
458.698
464.092
472.364
484.186
502.144
528.805
567.211
612.355
662.979
721.153
780.359
847.261
920.734
996.48
1050.42
1064.95
1044.45
1017.25
410.269
417.514
424.213
429.644
433.822
437.093
439.733
442.593
446.393
450.806
456.086
461.807
468.11
475.243
484.975
498.22
517.149
544.594
577.545
616.2
663.348
720.371
779.302
848.739
926.291
1008.83
1073.49
1093.84
1076.3
1045.43
416.523
422.293
428.935
434.375
438.817
442.616
445.406
448.27
452.228
456.91
463.132
469.85
476.776
485.001
495.477
509.25
528.674
552.898
581.069
616.751
661.423
718.912
779.12
851.211
933.564
1023.38
1096.79
1122.51
1106.4
1064.61
420.776
426.572
432.513
437.867
442.505
447.012
449.677
452.603
456.445
461.316
467.214
475.221
482.641
491.765
503.013
517.442
535.061
555.99
581.84
615.911
659.529
717.927
781.582
857.338
943.18
1038.7
1120.14
1150.03
1135.17
1087.4
427.162
432.461
436.922
442.112
446.765
451.249
454.618
457.545
461.596
466.6
471.869
479.559
488.383
496.941
508.361
522.102
537.755
556.906
581.749
614.563
659.483
718.914
787.668
868.663
958.421
1055.93
1141.77
1177.53
1162.76
1110.39
431.441
436.85
441.849
446.106
450.231
454.272
457.978
461.215
465.56
470.072
475.039
482.459
491.425
500.589
511.797
524.298
538.813
557.255
581.617
614.517
662.197
724.085
798.941
884.605
977.645
1076.15
1162.62
1202.12
1188.41
1128.79
435.197
440.445
446.659
450.674
454.405
458.196
461.931
465.356
469.347
474.219
479.33
485.745
494.2
503.844
514.094
525.485
539.332
557.472
582.662
617.35
669.417
735.03
816.327
905.608
1000.55
1099.44
1184.91
1224.77
1212.26
1149.14
439.237
443.9
449.663
454.237
457.837
461.196
464.882
468.651
472.882
476.993
482.138
488.778
497.07
506.442
515.683
526.403
540.023
558.768
586.563
624.856
681.907
751.897
840.054
932.055
1028.1
1125.7
1209.34
1246.64
1233.82
1164.9
443.123
447.832
453.371
458.26
461.805
464.705
468.514
472.571
476.648
480.546
485.078
491.953
500.19
508.958
517.313
527.546
541.918
563.024
594.87
638.073
700.065
773.533
866.578
960.428
1058.22
1155.51
1234.91
1268.38
1254.03
1181.48
445.096
450.019
455.869
461.257
465.002
467.709
471.862
476.185
479.536
483.668
488.126
495.068
502.914
510.966
518.957
529.438
546.177
571.524
608.643
657.797
724.616
801.361
895.106
993.278
1093.82
1187.53
1261.32
1289.81
1273.39
1196.04
447.424
452.479
458.851
464.698
469.358
471.643
475.203
479.955
482.416
486.598
491.557
498.841
505.521
512.789
521.298
533.763
554.063
585.084
628.372
684.294
755.132
834.862
929.211
1033.34
1131.37
1221.24
1288.41
1310.78
1291.71
1207.17
450.633
455.436
461.504
467.368
472.028
475.481
478.259
482.062
485.523
489.808
495.806
503.304
509.148
515.721
525.53
541.739
566.947
604.073
653.938
716.579
790.484
873.049
970.27
1076.49
1171.17
1255.82
1315.58
1330.58
1308.68
1218.62
453.9
458.362
464.118
469.882
474.272
478.445
481.344
484.625
488.388
492.961
499.855
507.032
512.872
520.044
532.775
554.476
585.884
629.499
686.182
754.651
830.87
916.178
1014.04
1120.22
1211.41
1290
1341.74
1349.14
1324.2
1228.47
456.657
460.87
466.16
471.887
476.877
480.48
483.879
487.319
491.168
496.732
503.295
509.959
516.646
526.598
544.218
572.848
611.767
662.167
725.383
798.463
876.65
964.05
1062.32
1165.96
1251.59
1322.91
1366.14
1366.81
1338.4
1238.85
458.97
462.94
468.048
473.59
478.42
482.48
486.172
489.897
493.764
500.032
506.137
512.928
521.563
536.489
561.275
598.003
644.874
702.267
770.928
847.066
927.56
1017.94
1113.07
1211.66
1291.51
1354.77
1388.98
1384.33
1350.87
1242.54
460.844
464.749
469.778
475.275
480.26
484.553
488.471
492.415
496.802
503.075
509.167
517.139
529.766
551.758
585.39
630.583
685.368
749.386
821.904
899.256
983.923
1073.52
1164.18
1255.93
1331.3
1385.55
1410.88
1400.53
1362.42
1251.85
462.685
466.617
471.321
476.885
481.683
486.378
490.698
495.284
500.8
506.524
512.884
523.53
542.949
574.063
616.675
670.367
732.779
802.251
877.277
954.662
1042.29
1129.81
1215.9
1300.35
1370.4
1415.42
1431.73
1416.78
1372.75
1252.85
464.695
468.156
472.684
477.652
482.534
488.058
492.962
498.343
505.296
510.821
518.371
534.205
560.986
601.545
653.047
715.305
785.286
858.628
934.595
1013.99
1100.5
1184.79
1267.18
1344.9
1407.79
1443.66
1451.03
1432.37
1382.88
1256.32
466.776
469.713
473.398
478.066
483.094
489.466
495.273
501.956
509.312
515.616
527.015
549.981
585.426
633.94
693.148
761.786
837.766
913.362
991.37
1074.07
1156.64
1238.64
1316.72
1387.64
1443.08
1470.2
1470.32
1447.96
1393.43
1244.24
468.521
471.265
474.278
478.635
483.546
490.469
497.94
505.741
513.274
522.143
539.433
571.433
615.968
671.639
737.401
810.085
887.329
961.16
1045.75
1129.57
1210.99
1290.39
1364.04
1428.45
1475.29
1495.18
1490.22
1465.72
1421.31
1250.14
862.232
826.365
811.42
796.659
792.355
795.289
803.909
819.482
842.212
872.409
909.018
950.787
996.865
1045.77
1095.64
1145.11
1193.09
1238.94
1282
1321.69
1357.92
1390.6
1419.57
1445.09
1467.66
1487.66
1504.98
1519.92
1532.75
1543.68
1552.69
1560.46
1566.94
1572.15
1576.16
1578.95
1580.52
1580.86
1579.99
1577.87
1574.45
1569.7
1563.49
1555.7
1546.25
1535.07
1522.06
1507.08
1490.02
1470.77
1449.22
1425.47
1399.83
1372.28
1342.99
1311.99
1279.33
1245.35
1210.3
1174.51
1138.28
1101.92
1065.8
1030.21
995.204
960.795
926.926
893.557
860.742
828.55
797.158
766.782
737.778
710.346
684.749
660.947
639.026
618.907
600.607
584.216
569.717
557.008
546.129
536.668
528.611
521.587
515.428
510.065
505.214
500.945
497.094
493.575
490.319
487.469
484.564
482.166
479.606
477.053
474.996
472.996
470.973
469.312
468.019
466.889
465.946
465.294
465.017
464.914
464.936
464.947
464.922
465.354
466.545
467.091
467.759
469.501
469.833
470.466
470.562
470.397
470.735
471.631
471.711
471.231
469.883
954.682
933.65
917.686
909.244
908.978
916.776
932.168
955.032
985.364
1022.74
1065.86
1113.14
1163.01
1213.86
1264.21
1312.88
1359.07
1402.22
1441.97
1478.1
1510.58
1539.44
1564.65
1586.85
1606.47
1623.54
1638.14
1650.6
1661.21
1670.15
1677.63
1683.85
1688.9
1692.84
1695.71
1697.54
1698.28
1698.01
1696.7
1694.23
1690.55
1685.74
1679.7
1672.33
1663.57
1653.36
1641.64
1628.38
1613.52
1597.03
1578.93
1559.23
1537.94
1515.14
1490.84
1465.27
1438.59
1410.94
1382.45
1353.28
1323.5
1293.34
1263
1232.58
1202.08
1171.43
1140.64
1109.7
1078.62
1047.41
1016.01
984.533
953.097
921.741
890.491
859.369
828.32
797.258
766.228
735.488
705.518
676.907
650.334
626.148
604.643
585.665
568.991
554.43
541.815
531.027
521.813
514.044
507.348
501.747
496.794
492.365
488.567
485.149
481.982
479.365
476.807
474.599
472.912
471.527
470.445
469.356
468.775
468.233
467.949
467.977
467.959
468.209
468.753
469.034
469.748
471.159
471.586
472.212
472.476
472.573
472.856
473.551
473.955
473.689
472.473
1049.26
1035.56
1024.53
1020.78
1023.96
1035.12
1054.15
1080.76
1114.13
1153.3
1197.11
1244.15
1292.89
1341.85
1389.75
1435.58
1478.61
1518.41
1554.8
1587.71
1617.14
1642.88
1665.55
1685.55
1703.16
1718.3
1731.26
1742.31
1751.71
1759.65
1766.3
1771.8
1776.26
1779.72
1782.24
1783.81
1784.4
1784.1
1782.85
1780.59
1777.3
1772.96
1767.53
1760.95
1753.18
1744.21
1733.87
1722.29
1709.44
1695.31
1679.94
1663.37
1645.66
1626.88
1607.11
1586.33
1564.54
1541.88
1518.38
1494.4
1470.05
1445.29
1420.17
1394.77
1369.06
1342.96
1316.37
1289.25
1261.62
1233.42
1204.67
1175.38
1145.54
1115.08
1084.05
1052.48
1020.34
987.614
954.432
920.904
887.263
853.802
820.768
788.307
756.314
725.527
696.116
668.258
642.384
618.771
597.594
578.97
562.665
548.547
536.141
525.47
516.222
508.385
501.501
495.945
491.021
486.972
484.18
481.751
480.027
478.282
477.115
476.093
475.588
475.357
474.782
474.615
474.422
474.424
474.964
475.828
476.219
476.193
476.568
476.693
476.751
477.045
477.295
476.913
475.475
1145.12
1137.49
1132.94
1133.78
1141.67
1157.04
1179.67
1209.09
1244.24
1284.06
1327.31
1372.72
1419.03
1464.99
1509.56
1551.87
1591.35
1627.66
1660.64
1690.33
1716.71
1739.79
1760.22
1778.32
1794.19
1807.78
1819.49
1829.55
1838.18
1845.53
1851.75
1856.95
1861.21
1864.6
1867.14
1868.87
1869.7
1869.76
1868.98
1867.32
1864.76
1861.27
1856.81
1851.36
1844.88
1837.37
1828.77
1819.12
1808.43
1796.73
1784.03
1770.41
1755.77
1740.29
1724.01
1706.95
1689.22
1670.88
1652.13
1632.75
1612.79
1592.23
1570.92
1549.17
1526.93
1504.07
1480.52
1456.28
1431.4
1405.75
1379.25
1351.81
1323.51
1294.43
1264.59
1233.94
1202.37
1169.98
1136.8
1102.9
1068.45
1033.6
998.501
963.26
928.103
893.364
859.429
826.032
793.989
763.241
733.632
705.14
677.774
651.961
627.857
605.682
585.38
567.383
551.531
538.102
526.399
516.536
508.864
502.681
497.725
493.717
490.663
488.252
486.751
485.845
484.422
483.847
482.768
482.405
482.836
483.355
483.27
482.448
481.874
481.656
481.159
481.116
481.054
480.467
479.061
1244.63
1242.8
1243.54
1249.63
1262.22
1281.51
1307.14
1338.45
1374.64
1414.31
1456.33
1499.55
1542.86
1585.33
1626.16
1664.72
1700.6
1733.54
1763.45
1790.16
1813.8
1834.83
1853.54
1870.1
1884.53
1897.1
1908.06
1917.57
1925.86
1933.02
1939.18
1944.44
1948.87
1952.53
1955.46
1957.68
1959.19
1959.9
1959.95
1959.21
1957.68
1955.32
1952.1
1948
1943.01
1937.13
1930.34
1922.67
1914.11
1904.69
1894.42
1883.34
1871.44
1858.78
1845.41
1831.38
1816.8
1801.49
1785.65
1769.23
1752.15
1734.44
1716.24
1697.29
1677.49
1656.87
1635.31
1612.67
1589.26
1564.97
1539.7
1513.48
1486.31
1458.18
1429.06
1398.93
1367.95
1336.2
1303.72
1270.33
1236.14
1201.29
1166.03
1130.54
1094.97
1059.46
1024.13
989.112
954.592
920.691
887.127
854.121
822.263
791.008
760.729
731.621
703.635
677.016
651.422
627.24
604.698
584.096
565.99
550.538
537.744
527.351
519.049
512.364
507.645
503.834
499.559
496.265
493.342
492.499
492.928
493.915
493.189
491.475
489.477
488.002
487.351
487.002
486.326
485.485
484.321
1346.69
1349.46
1355.41
1366.33
1383.05
1405.56
1433.37
1465.72
1501.76
1540.56
1580.9
1621.6
1661.88
1701
1738.35
1773.45
1806.03
1835.92
1862.98
1887.24
1908.98
1928.46
1945.84
1961.25
1974.89
1986.96
1997.64
2007.09
2015.44
2022.73
2029.18
2034.83
2039.74
2044.02
2047.67
2050.72
2053.16
2054.96
2056.06
2056.44
2056.14
2055.05
2053.19
2050.54
2047.12
2042.92
2037.94
2032.16
2025.57
2018.17
2009.96
2000.94
1991.14
1980.59
1969.33
1957.4
1944.84
1931.58
1917.65
1903.03
1887.69
1871.67
1854.63
1836.71
1817.84
1797.9
1776.93
1755.23
1732.45
1708.6
1683.63
1657.5
1630.48
1602.53
1573.62
1543.83
1513.3
1482.08
1450.07
1417.51
1384.46
1350.97
1316.97
1282.43
1247.62
1212.69
1177.68
1142.58
1107.79
1073.29
1039.02
1005.11
971.808
938.825
906.059
873.817
841.999
810.474
779.24
748.721
719.265
691.245
665.244
640.811
618.156
597.47
579.096
563.868
551.439
541.801
531.986
522.844
515.715
510.802
509.806
508.086
504.317
501.508
499.23
497.727
496.875
495.365
494.351
493.252
491.734
1449.01
1455.92
1466.48
1481.57
1501.66
1526.56
1555.73
1588.43
1623.82
1661.03
1699.2
1737.51
1775.1
1811.31
1845.67
1877.74
1907.43
1934.72
1959.64
1982.19
2002.52
2020.85
2037.4
2052.26
2065.64
2077.64
2088.43
2098.1
2106.76
2114.51
2121.47
2127.74
2133.29
2138.5
2143.17
2147.3
2150.9
2153.91
2156.24
2157.89
2158.76
2158.95
2158.46
2157.27
2155.43
2152.9
2149.65
2145.61
2140.74
2135.01
2128.42
2120.96
2112.67
2103.56
2093.68
2083.03
2071.6
2059.36
2046.28
2032.38
2017.61
2001.89
1985.07
1967.13
1948.09
1927.98
1906.9
1884.57
1861.2
1836.76
1811.27
1784.91
1757.7
1729.63
1700.65
1670.75
1640.24
1609.16
1577.56
1545.53
1513.14
1480.39
1447.38
1414.37
1381.36
1348.34
1315.25
1282.03
1248.71
1215.42
1182.06
1148.76
1115.46
1082.08
1048.89
1015.72
982.446
949.093
915.889
883.206
850.363
817.763
786.101
755.446
726.05
698.296
671.958
648.668
627.729
610.343
594.553
578.432
563.791
551.273
543.521
535.27
525.579
518.299
512.825
508.629
506.243
504.78
503.8
502.602
500.526
1549.99
1560.54
1575.16
1593.69
1616.39
1642.97
1672.89
1705.48
1739.99
1775.66
1811.75
1847.58
1882.5
1916.01
1947.79
1977.67
2005.27
2030.68
2054.08
2075.4
2094.72
2112.32
2128.65
2143.42
2156.87
2169.07
2180.12
2190.1
2199.14
2207.32
2214.81
2221.75
2228.27
2234.47
2240.28
2245.5
2250.26
2254.43
2257.83
2260.51
2262.55
2263.89
2264.59
2264.83
2264.56
2263.64
2262.01
2259.52
2256.1
2251.73
2246.4
2240.1
2232.87
2224.74
2215.73
2205.79
2194.86
2182.91
2169.95
2156.06
2141.14
2124.97
2107.45
2088.66