/*--------------------------------*- C++ -*----------------------------------*\
| =========                 |                                                 |
| \\      /  F ield         | OpenFOAM: The Open Source CFD Toolbox           |
|  \\    /   O peration     | Version:  2112                                  |
|   \\  /    A nd           | Website:  www.openfoam.com                      |
|    \\/     M anipulation  |                                                 |
\*---------------------------------------------------------------------------*/
FoamFile
{
    version     2.0;
    format      ascii;
    arch        "LSB;label=32;scalar=64";
    class       surfaceScalarField;
    location    "0.00835";
    object      phi;
}
// * * * * * * * * * * * * * * * * * * * * * * * * * * * * * * * * * * * * * //

dimensions      [1 0 -1 0 0 0 0];

oriented        oriented;

internalField   nonuniform List<scalar> 
27436
(
-0.533458
8.1928
-0.0932917
7.47165
-0.0850462
7.78731
-0.070243
7.7865
-0.0646903
7.78889
-0.0483848
7.78228
-0.0406223
7.78914
-0.0340985
7.79042
-0.0239449
7.78791
-0.0158849
7.789
-0.0089292
7.78954
0.000357416
7.78785
0.0141826
7.78329
0.0311067
7.7808
0.0462525
7.78229
0.0549067
7.78825
0.0580157
7.79262
0.0658481
7.7897
0.0753549
7.78828
0.0895473
7.78254
0.0962212
7.78791
0.111752
7.78554
0.124099
7.78238
0.574139
7.46249
8.21727
-0.24721
8.44002
-0.0961811
7.32062
-0.0814068
7.77246
-0.0553249
7.76043
-0.0617306
7.79467
-0.0578521
7.77488
-0.0382364
7.76802
-0.0285103
7.78124
-0.021221
7.7802
-0.0107529
7.77918
0.00177253
7.77809
0.0159527
7.77383
0.0151872
7.78406
0.0216173
7.77434
0.0210559
7.78283
0.0377172
7.77159
0.0466157
7.78372
0.0589552
7.77736
0.0823297
7.76492
0.0776591
7.78722
0.0721681
7.79344
0.102948
7.75473
0.11425
7.77132
0.267673
7.30854
8.47902
-0.22724
8.66726
-0.141152
7.23452
-0.120529
7.75173
-0.107347
7.74665
-0.105258
7.79195
-0.106847
7.77519
-0.0936103
7.75495
-0.0730952
7.75906
-0.059413
7.76364
-0.050014
7.76871
-0.039064
7.76767
-0.0144312
7.7496
-0.0125252
7.78222
-0.0113695
7.77323
-0.00824508
7.77971
0.0127037
7.75064
0.0240601
7.77236
0.0473686
7.75408
0.0609287
7.75136
0.0593921
7.78875
0.063809
7.78901
0.0786692
7.73991
0.10054
7.74969
0.192577
7.21478
8.67094
-0.16953
8.83679
-0.139459
7.20444
-0.134204
7.7464
-0.113662
7.72573
-0.114908
7.79262
-0.111313
7.7715
-0.0900692
7.73341
-0.0720578
7.73978
-0.0581326
7.74875
-0.0440951
7.75407
-0.0291181
7.75184
-0.00706499
7.72756
0.00307104
7.77212
0.00490167
7.77146
0.0149542
7.76966
0.0352998
7.73028
0.0494281
7.75822
0.0697985
7.73374
0.0885684
7.7326
0.0942256
7.78309
0.0944441
7.78878
0.118933
7.71552
0.111284
7.75736
0.161822
7.16399
8.83751
-0.073578
8.91036
-0.0365037
7.16731
-0.0926342
7.80238
-0.0633449
7.6959
-0.0711857
7.79965
-0.0708463
7.77102
-0.0518996
7.71445
-0.0358659
7.72242
-0.0252745
7.73755
-0.01478
7.74288
-0.00162715
7.73781
0.0166834
7.70945
0.0268784
7.76199
0.0277008
7.7707
0.0370171
7.76035
0.0543712
7.71291
0.0644474
7.74814
0.0821595
7.71604
0.0970202
7.71775
0.101062
7.77904
0.0968798
7.79294
0.124807
7.68763
0.0898332
7.79238
0.0967135
7.1577
8.93903
0.11861
8.79174
0.0438277
7.24202
-0.0502108
7.89629
-0.0134876
7.65866
-0.0332357
7.81875
-0.03768
7.77733
-0.0246927
7.70051
-0.0129929
7.70978
-0.00680934
7.72955
-0.00218823
7.73762
0.0054904
7.72922
0.0194349
7.69562
0.0256323
7.75583
0.0250231
7.77135
0.029659
7.75574
0.0421654
7.7004
0.0463524
7.74394
0.0584811
7.70393
0.0684877
7.70776
0.0690647
7.77845
0.0524275
7.80954
0.0884394
7.65167
-0.0139436
7.89464
-0.020833
7.16467
8.91946
0.304673
8.48707
0.136164
7.41044
-0.00684937
8.03917
0.0214075
7.62986
-0.0246361
7.8641
-0.0509367
7.80243
-0.0590354
7.70813
-0.0678628
7.71856
-0.0839624
7.74441
-0.0954822
7.7485
-0.112411
7.745
-0.120079
7.70342
-0.131117
7.76689
-0.146247
7.78654
-0.15807
7.76761
-0.166399
7.70875
-0.185038
7.76257
-0.192979
7.71188
-0.207913
7.72271
-0.228703
7.79924
-0.26277
7.84354
-0.284746
7.67368
-0.35436
7.96401
-0.6583
7.46872
8.26064
0.873338
7.61378
0.521961
7.76176
0.410491
8.15049
0.331282
7.70864
0.265611
7.92952
0.224139
7.84197
0.194868
7.7362
0.170187
7.74247
0.140646
7.77311
0.114143
7.77418
0.0825751
7.77531
0.0612003
7.72468
0.0379855
7.79017
0.00673836
7.81786
-0.0192285
7.79373
-0.0444864
7.7341
-0.0743199
7.79241
-0.100688
7.73823
-0.130601
7.75263
-0.167108
7.83569
-0.228184
7.90454
-0.279082
7.72458
-0.40588
8.09054
-0.693479
7.75642
7.56424
0.59299
7.02088
0.41027
7.94449
0.237866
8.32303
0.187365
7.75861
0.126608
7.99001
0.0944099
7.87445
0.0865988
7.74337
0.0826193
7.74529
0.0771625
7.77813
0.0757611
7.7747
0.0713759
7.77875
0.0710009
7.7247
0.077067
7.78421
0.0767703
7.81821
0.0769668
7.79371
0.0722793
7.73901
0.0674374
7.79733
0.062935
7.74272
0.0562448
7.75929
0.0293411
7.86253
-0.0266769
7.96043
-0.0465108
7.7443
-0.219177
8.26282
-0.371801
7.90876
7.18949
-3.05128
10.0721
-3.39197
8.28547
-2.76467
7.6956
-2.61922
7.61297
-2.30307
7.67342
-1.9376
7.51751
-1.64712
7.45135
-1.37148
7.46877
-1.08429
7.49103
-0.779909
7.46956
-0.494639
7.49275
-0.208763
7.43874
0.0980592
7.47774
0.4036
7.5126
0.694867
7.50266
0.966604
7.46767
1.2644
7.49973
1.54095
7.4661
1.83542
7.46467
2.19634
7.50147
2.50184
7.65478
2.66036
7.58569
3.23453
7.6883
2.95047
8.19236
10.1398
-4.25856
14.3304
-4.36668
8.39462
-4.19689
7.52586
-3.90386
7.31908
-3.32684
7.09884
-2.78861
6.98541
-2.34963
7.01113
-1.92412
7.042
-1.46997
7.03719
-1.01935
7.01852
-0.561806
7.03472
-0.121201
6.99848
0.341171
7.016
0.811583
7.04198
1.25939
7.05498
1.6775
7.05018
2.13216
7.0455
2.56947
7.02889
3.02377
7.01025
3.57501
6.95
4.13199
7.09763
4.44307
7.27439
4.61413
7.51712
4.56452
8.24136
14.7056
-2.75863
17.0881
-4.86756
10.5043
-4.98346
7.64152
-4.14158
6.47585
-3.62033
6.57864
-3.17229
6.53864
-2.7022
6.5385
-2.21743
6.55616
-1.71624
6.53662
-1.22484
6.52714
-0.722488
6.53241
-0.243774
6.52056
0.258274
6.51491
0.762086
6.53794
1.25921
6.55776
1.71936
6.59061
2.20747
6.55813
2.69732
6.5395
3.19116
6.51634
3.66634
6.47451
4.24732
6.51636
5.09738
6.42416
4.72061
7.89389
2.77947
10.1826
17.4858
2.36381
14.7224
0.170078
12.6988
-5.00336
12.8151
-3.89001
5.36176
-3.80054
6.4883
-3.30811
6.04174
-2.88017
6.1075
-2.37309
6.04865
-1.84772
6.01211
-1.32924
6.00936
-0.809871
6.01395
-0.306505
6.01843
0.211475
5.99813
0.740992
6.00879
1.26481
6.03378
1.78853
6.06711
2.2816
6.06564
2.76159
6.06026
3.20137
6.07691
3.75919
5.91645
3.97219
6.30291
5.10719
5.28863
-0.180581
13.1816
-2.39885
12.4011
15.0869
2.45325
12.2654
3.51875
11.6332
3.45251
12.8839
-0.807303
9.63148
-3.6327
9.31459
-3.20574
5.61768
-2.97675
5.8776
-2.47296
5.54514
-1.94571
5.48603
-1.4652
5.53029
-0.976408
5.52694
-0.47228
5.51582
0.0267278
5.50041
0.532938
5.50389
1.0338
5.53357
1.52756
5.57349
2.02779
5.56538
2.48477
5.60374
2.61459
5.94772
2.98457
5.54643
-0.0889752
9.37583
-4.15617
9.35572
-3.87816
12.9034
-2.95651
11.48
12.1307
1.87652
10.3859
3.8757
9.6321
5.76754
10.9944
4.95524
10.4511
4.09565
10.1893
-1.1966
10.9171
-2.38884
7.06815
-2.04556
5.20405
-1.62978
5.07177
-1.13667
5.03949
-0.602444
4.99462
-0.0624008
4.97703
0.470176
4.96884
1.00259
4.97301
1.54269
4.99471
2.05393
5.06275
2.4446
5.17435
2.79712
5.25153
1.51478
7.23123
-3.65891
10.7207
-4.23723
9.95335
-4.89106
10.0097
-3.05429
11.0665
-1.33443
9.76075
10.7968
1.0879
9.29503
2.16093
8.55684
3.97517
9.17848
4.93419
9.49388
5.05624
10.0724
5.78633
10.1853
2.77843
10.0729
1.1257
6.86154
-0.0698094
6.27003
-0.395444
5.36396
-0.253312
4.85232
0.0423302
4.68122
0.395338
4.61571
0.718485
4.65007
0.932334
4.78162
0.817686
5.17791
-0.509512
6.50221
-2.33809
7.0799
-5.02789
9.92178
-4.27679
9.96958
-3.96986
9.64575
-3.50728
9.54681
-1.86022
9.41885
-0.760434
8.661
10.0367
2.00717
7.28433
3.18205
7.37836
4.38265
7.97631
5.94602
7.92686
7.04847
8.97398
6.63752
10.6014
4.69229
12.0094
2.16345
9.39407
0.872959
7.56204
0.188218
6.04718
-0.0040753
5.04134
-0.0442078
4.71874
-0.0239761
4.59163
-0.0235404
4.64835
-0.169379
4.9258
-0.821835
5.83049
-2.37676
8.05852
-4.92907
9.63381
-6.74195
11.7389
-7.24211
10.469
-6.42674
8.82913
-5.00388
8.12283
-3.70867
8.12339
-2.56146
7.51355
7.47511
2.52996
4.75157
4.14046
5.76373
4.67344
7.43918
4.3207
8.28201
4.53965
8.75668
4.25464
10.8925
4.11271
12.1523
2.54435
10.9637
1.36633
8.74035
0.600099
6.81389
0.212392
5.42828
-0.0814637
5.01121
-0.375982
4.88426
-0.675701
4.94597
-1.02591
5.27413
-1.91105
6.7138
-3.24721
9.39277
-4.9304
11.3172
-5.8628
12.6734
-6.24446
10.8512
-5.95339
8.5401
-5.93624
8.10583
-4.96051
7.14711
-2.94135
5.49397
4.53359
3.15966
1.59102
6.23414
2.68717
8.46277
5.2061
8.22602
8.5206
6.45838
10.5222
5.93175
11.4198
5.59099
12.4961
4.87812
11.6757
4.14896
9.46991
3.2301
7.73431
1.98507
6.67436
0.813533
6.18274
-0.337097
6.03373
-1.53947
6.14617
-2.89972
6.6316
-3.9761
7.78707
-4.37913
9.79256
-4.76223
11.6981
-4.61479
12.5277
-5.24887
11.4895
-7.5032
10.7971
-7.84935
8.45169
-5.77002
5.06628
-2.95789
2.68142
1.5754
1.19854
0.391247
2.92054
0.963649
4.95043
3.17384
6.49086
6.97818
5.74768
11.2643
5.43085
11.7387
5.40315
12.527
4.85523
12.2244
3.8038
10.5218
2.64524
8.89377
1.4987
7.82157
0.378975
7.30262
-0.750172
7.16227
-1.90598
7.30077
-3.15067
7.87475
-4.44451
9.07902
-5.4518
10.7976
-5.87476
12.1187
-5.81353
12.4665
-6.09146
11.7698
-6.69205
11.3996
-4.97906
6.73868
-2.98273
3.06934
-1.21306
0.911384
0.361873
0.579842
-0.191127
0.863923
0.677749
1.00558
3.0311
1.31848
6.66332
2.26808
10.3144
2.9273
11.0816
3.41999
12.036
3.32201
12.3219
2.6502
11.1941
1.79094
9.75398
0.937991
8.67547
0.0991982
8.14174
-0.733317
7.99485
-1.61073
8.1779
-2.54638
8.80975
-3.48393
10.0153
-4.09036
11.4022
-4.03778
12.0648
-3.41939
11.8486
-2.72695
11.0776
-1.65962
10.3325
-1.15072
6.22982
-0.913956
2.83224
-0.595187
0.59163
-0.235119
-0.152058
-0.0397923
-0.302888
0.82692
-0.718664
3.44518
-0.668685
6.60944
0.394055
9.25041
1.31248
10.166
1.90642
11.442
2.03784
12.1896
1.74607
11.487
1.26541
10.2359
0.710728
9.23118
0.15079
8.70229
-0.411002
8.55733
-0.974656
8.74187
-1.53062
9.36543
-1.97734
10.4611
-2.16399
11.5877
-1.95058
11.8504
-1.27617
11.1741
-0.295876
10.0965
0.808525
9.22828
0.709999
6.32887
0.36303
3.17891
0.199672
0.754269
-0.0360195
-0.554256
0.51334
-1.39825
1.66988
-1.79505
3.8418
-1.80452
6.61388
-0.916866
8.36295
-0.0524724
9.3039
0.471333
10.9164
0.773685
11.8857
0.857073
11.4048
0.732903
10.3614
0.49762
9.46745
0.214122
8.98678
-0.0720284
8.84455
-0.340832
9.0114
-0.537104
9.56185
-0.596464
10.5202
-0.461839
11.4524
-0.185965
11.5744
0.446514
10.5433
1.30657
9.23645
2.17623
8.35689
2.03459
6.47003
1.53404
3.67834
0.557687
1.73016
0.520557
-0.401162
0.915257
-1.51538
2.78314
-2.44164
4.76693
-2.55436
6.72301
-2.07187
7.88124
-1.60068
8.83264
-1.02513
10.3378
-0.506055
11.3656
-0.155837
11.0568
-0.00356614
10.2105
0.0155202
9.44949
-0.0428943
9.04658
-0.135
8.93784
-0.19528
9.07249
-0.176505
9.54353
-0.00535359
10.3491
0.353812
11.0932
0.842236
11.0857
1.3502
10.0358
1.92517
8.66021
2.46385
7.81693
2.3455
6.58737
1.36412
4.65864
0.35994
2.73472
0.880876
-0.382123
1.29872
-1.40641
3.80745
-2.19877
5.55815
-2.42813
6.95082
-2.1946
7.64713
-1.88573
8.5222
-1.44518
9.89444
-0.918968
10.8383
-0.474311
10.6142
-0.216613
9.95419
-0.100641
9.33494
-0.0585032
9.00589
-0.0251687
8.90579
0.0276042
9.02061
0.164389
9.40722
0.439116
10.0748
0.873949
10.6584
1.37947
10.5805
1.77527
9.64053
2.10921
8.32692
2.38259
7.54303
2.13379
6.83515
1.30665
5.48408
0.348402
3.69156
1.22791
-0.353917
1.65465
-1.23275
4.68749
-2.0557
6.37933
-2.41872
7.31208
-2.38725
7.61484
-2.16392
8.29783
-1.77659
9.50415
-1.2142
10.2754
-0.716766
10.1188
-0.350194
9.58918
-0.135211
9.12165
0.0212815
8.85102
0.147542
8.7808
0.307224
8.86189
0.540058
9.17507
0.935838
9.67987
1.44707
10.148
1.96703
10.0607
2.29065
9.3178
2.50549
8.11152
2.51611
7.52995
2.14304
7.20753
1.23595
6.39019
0.348922
4.57656
1.5739
-0.44875
2.10592
-1.39542
5.637
-2.21153
7.19482
-2.53822
7.63775
-2.593
7.66738
-2.46017
8.16325
-2.16158
9.2038
-1.65581
9.76964
-1.13972
9.60477
-0.743207
9.19451
-0.44978
8.83
-0.22933
8.63204
-0.0218298
8.57453
0.196676
8.64439
0.493519
8.87895
0.879776
9.29446
1.3564
9.67208
1.83299
9.58498
2.14668
9.00325
2.29816
7.96123
2.24002
7.58901
1.95405
7.49216
1.21804
7.12529
0.374857
5.42028
1.94838
-0.363953
2.47259
-1.21327
6.49149
-1.96332
7.9444
-2.17349
7.84725
-2.35816
7.8497
-2.27593
8.08007
-1.99126
8.91801
-1.49435
9.27363
-1.01906
9.13196
-0.617279
8.79461
-0.314962
8.52931
-0.054174
8.37264
0.17972
8.34181
0.443826
8.3813
0.753482
8.57011
1.18281
8.86614
1.66568
9.19037
2.11174
9.13969
2.34533
8.7714
2.41723
7.88747
2.20473
7.7989
1.93619
7.76105
1.17607
7.88477
0.35654
6.24086
2.3065
-0.301714
2.77628
-1.18643
7.38064
-1.90812
8.66682
-2.08928
8.02867
-2.23819
7.99759
-2.16806
8.00861
-1.91936
8.66931
-1.49161
8.8473
-1.03268
8.6753
-0.643425
8.40687
-0.304241
8.19149
-0.0176382
8.08703
0.266326
8.05881
0.556637
8.09187
0.909908
8.21753
1.3037
8.47306
1.74345
8.75193
2.16009
8.72306
2.38214
8.54753
2.44172
7.83102
2.27967
7.96032
2.09942
7.94177
1.40468
8.5791
0.456938
7.18717
2.76354
-0.537922
3.31542
-1.44069
8.28711
-2.0535
9.28133
-2.22273
8.19743
-2.40337
8.17691
-2.44407
8.04937
-2.24659
8.47291
-1.7906
8.39374
-1.34641
8.23322
-0.93861
8.00007
-0.60782
7.86127
-0.294201
7.7741
-0.00193548
7.76716
0.311365
7.77925
0.645002
7.88446
1.06007
8.05861
1.49047
8.32128
1.87978
8.33582
2.07945
8.34889
2.047
7.86258
1.92812
8.07639
1.71661
8.15167
1.13446
9.16479
0.380492
7.95039
3.14655
-0.445833
3.76245
-1.26865
9.1111
-1.9193
9.93439
-2.02655
8.30561
-2.03947
8.18975
-2.01902
8.02942
-1.82335
8.27785
-1.46931
8.04058
-1.07802
7.8425
-0.724137
7.64614
-0.379852
7.51726
-0.0736563
7.46806
0.2408
7.45298
0.5516
7.46873
0.902708
7.53356
1.26456
7.69692
1.64608
7.94098
2.00736
7.97341
2.1624
8.19498
2.15518
7.8727
2.14645
8.08548
1.95142
8.34553
1.40827
9.71053
0.538334
8.82096
3.68936
-0.423994
4.18666
-0.815572
9.5036
-1.54969
10.669
-1.75285
8.50658
-1.8194
8.25528
-1.78133
7.99225
-1.6557
8.15355
-1.32652
7.71244
-0.994214
7.50988
-0.655674
7.30692
-0.363213
7.22432
-0.0628261
7.16754
0.223847
7.16625
0.523831
7.16879
0.82198
7.23541
1.18721
7.33165
1.5315
7.59642
1.8062
7.69987
1.92311
8.07636
1.95919
7.83663
1.92471
8.11666
1.82468
8.44509
1.09431
10.4398
0.563476
9.3405
4.27247
-0.657322
4.8393
-1.11785
9.96381
-1.84413
11.3966
-1.98182
8.64414
-1.95696
8.22881
-1.8907
7.9264
-1.71162
7.97386
-1.42315
7.42288
-1.11359
7.1986
-0.823276
7.0156
-0.515395
6.9157
-0.230642
6.88234
0.0675577
6.86775
0.357248
6.87881
0.669141
6.92336
0.954558
7.04619
1.24882
7.30193
1.54094
7.40702
1.68368
7.93442
1.74618
7.77438
1.75007
8.11342
1.67164
8.51958
0.798814
11.3147
0.427216
9.71484
4.71799
-0.459734
5.29661
-0.7832
10.2859
-1.38031
11.9937
-1.59975
8.86399
-1.655
8.28598
-1.60467
7.87807
-1.45275
7.82267
-1.19362
7.1616
-0.910134
6.9129
-0.605973
6.71049
-0.340054
6.64902
-0.057789
6.59946
0.208969
6.60055
0.487948
6.59958
0.753802
6.65699
1.06945
6.73008
1.35224
7.01873
1.59251
7.1672
1.74847
7.77705
1.77593
7.74952
1.74066
8.14751
1.47221
8.79113
0.990863
11.8078
0.464947
10.2493
5.15535
-0.332012
5.62861
-0.503086
10.4555
-1.00339
12.4928
-1.52614
9.38561
-1.5687
8.32623
-1.48736
7.79392
-1.26608
7.59664
-1.05401
6.94695
-0.817549
6.67439
-0.583725
6.47556
-0.321631
6.38614
-0.0802538
6.3575
0.179655
6.34014
0.424807
6.35391
0.685689
6.39595
0.91733
6.49799
1.15996
6.77524
1.38911
6.93777
1.56612
7.59838
1.62683
7.68444
1.68326
8.09323
1.25914
9.21544
0.74414
12.3063
0.328577
10.6713
5.47696
-0.441649
6.06678
-0.700162
10.7106
-0.975982
12.7669
-1.59264
10.002
-1.55759
8.2911
-1.50891
7.74593
-1.37562
7.46307
-1.12909
6.6986
-0.911818
6.45542
-0.655655
6.21897
-0.43189
6.16164
-0.185181
6.11021
0.0410473
6.11339
0.282428
6.11222
0.513915
6.16381
0.777419
6.23393
0.984896
6.56752
1.20218
6.72082
1.3524
7.44894
1.38582
7.65189
1.33572
8.13852
0.709713
9.84047
0.426557
12.5949
0.229339
10.8624
5.69351
-0.254638
6.31919
-0.364099
10.8188
-0.488163
12.8904
-1.23961
10.7549
-1.38004
8.43279
-1.34391
7.70899
-1.12688
7.24339
-0.906652
6.47565
-0.697873
6.24484
-0.504726
6.0248
-0.273448
5.92988
-0.0614442
5.89767
0.174896
5.87661
0.393186
5.8935
0.617784
5.93888
0.809686
6.04217
1.03455
6.3411
1.27434
6.4796
1.45488
7.26685
1.47908
7.62386
1.40353
8.2197
0.692057
10.5583
0.612402
12.6675
0.480526
10.9941
6.15838
-0.0518288
6.37142
-0.0729419
10.838
-0.0945318
12.9122
-0.780541
11.4397
-1.18031
8.82962
-1.12442
7.65065
-1.0227
7.13716
-0.837027
6.28865
-0.658149
6.06548
-0.445564
5.8121
-0.260848
5.74462
-0.0548399
5.69118
0.134116
5.68726
0.339703
5.68756
0.526879
5.75141
0.756956
5.81081
0.925754
6.17241
1.10696
6.29836
1.27044
7.10535
1.33702
7.55667
0.978646
8.56843
0.293047
11.2433
0.260883
12.7025
0.273335
10.9307
6.45501
-0.229737
6.59939
-0.385688
10.9942
-0.231815
12.7588
-0.73032
11.9357
-1.32186
9.41928
-1.23489
7.56564
-1.06504
6.96873
-0.879055
6.1024
-0.686534
5.87174
-0.525344
5.65068
-0.335584
5.55444
-0.159212
5.51436
0.0370462
5.49068
0.2147
5.50961
0.405082
5.56062
0.565231
5.65095
0.770684
5.96624
0.945983
6.12212
1.04717
7.00031
1.12478
7.47543
0.485074
9.21837
-0.0915813
11.8236
0.0274573
12.5652
0.0724397
10.8737
6.60089
-0.03732
6.63681
-0.0647773
11.0237
0.114542
12.582
-0.178504
12.2302
-0.864076
10.1083
-0.938651
7.63935
-0.855222
6.88197
-0.718615
5.96263
-0.575284
5.72769
-0.382764
5.4574
-0.2181
5.38939
-0.0391806
5.33501
0.128877
5.32229
0.308151
5.33001
0.472619
5.39589
0.682817
5.44027
0.817812
5.8312
0.962305
5.97705
1.09348
6.87084
1.02951
7.54007
0.393976
9.86719
0.0985056
12.1156
0.248214
12.4253
0.192276
11.0075
6.82263
0.0154585
6.62356
0.0739261
10.9669
0.279643
12.3784
0.209227
12.301
-0.510637
10.8215
-0.907246
8.03255
-0.7356
6.70713
-0.633926
5.86145
-0.485209
5.57934
-0.357553
5.33017
-0.197592
5.22918
-0.0466913
5.18384
0.116985
5.15834
0.268141
5.17853
0.42556
5.23804
0.558413
5.30666
0.736207
5.6525
0.837175
5.87483
1.04446
6.66063
0.760887
7.82012
-0.000490568
10.6167
-0.130526
12.2472
0.0317607
12.276
-0.0123109
11.0716
6.79497
-0.12488
6.75079
-0.0949978
10.9377
0.053581
12.2326
0.156424
12.2013
-0.306083
11.2939
-0.78828
8.51697
-0.774652
6.69754
-0.660765
5.74789
-0.571554
5.48971
-0.412597
5.1704
-0.273136
5.08942
-0.119404
5.02976
0.0244891
5.01413
0.171629
5.03102
0.312443
5.09716
0.477817
5.14157
0.553108
5.57719
0.631868
5.79639
0.70997
6.58224
0.150035
8.38062
-0.457287
11.2166
-0.311229
12.104
-0.260894
12.2655
-0.161192
10.9383
6.58934
-0.0328301
6.78469
0.0374693
10.8693
0.187445
12.0853
0.545203
11.8459
0.128106
11.7139
-0.486405
9.13433
-0.648529
6.85425
-0.508405
5.60501
-0.410173
5.39078
-0.309201
5.06927
-0.172852
4.95307
-0.0389162
4.89572
0.106204
4.86875
0.243845
4.89314
0.377739
4.96243
0.487979
5.03039
0.631629
5.43218
0.752639
5.67411
0.636478
6.69891
0.082177
8.93404
-0.300925
11.5831
-0.0902222
11.8859
0.0246475
12.1447
0.0968519
10.8418
6.63235
0.0930397
6.69174
0.261163
10.7033
0.305639
12.0439
0.562466
11.5915
0.706298
11.5589
-0.00849439
9.84584
-0.452947
7.29605
-0.444854
5.59997
-0.375784
5.32345
-0.266358
4.96058
-0.155772
4.84245
-0.0303993
4.77011
0.0919683
4.74617
0.218891
4.76583
0.332344
4.84919
0.453985
4.90923
0.528122
5.35771
0.592736
5.60909
0.317826
6.97075
-0.459613
9.71084
-0.478918
11.6008
-0.204767
11.6026
-0.146535
12.0536
-0.00186292
10.6313
6.58353
-0.123437
6.81626
-0.0118199
10.595
0.0964104
11.9397
0.349734
11.3377
0.626847
11.2826
0.0846986
10.3911
-0.388578
7.77783
-0.466451
5.67874
-0.382606
5.23851
-0.307677
4.8843
-0.208156
4.74278
-0.0974951
4.65921
0.0239762
4.62444
0.135398
4.65426
0.237306
4.74651
0.311133
4.83473
0.401628
5.26698
0.310814
5.70017
-0.160593
7.44681
-0.807408
10.358
-0.577947
11.3688
-0.366688
11.3814
-0.253824
11.9346
-0.037919
10.3885
6.53452
0.0472477
6.77011
0.227824
10.4195
0.281089
11.8881
0.468078
11.1538
0.868907
10.8807
0.706831
10.5511
0.0114251
8.46874
-0.301907
5.98634
-0.315416
5.25286
-0.213299
4.78374
-0.129597
4.65939
-0.0283569
4.55792
0.0763961
4.51955
0.181433
4.549
0.269086
4.65884
0.350599
4.75344
0.379032
5.23601
0.126155
5.95097
-0.490409
8.06701
-0.800131
10.6665
-0.376853
10.9449
-0.146289
11.1342
-0.0796746
11.8479
0.0539171
10.2997
6.60096
0.0616243
6.70947
0.287663
10.1979
0.405731
11.7739
0.581824
10.976
0.856994
10.6027
0.959427
10.4445
0.318234
9.1119
-0.0769564
6.38707
-0.211055
5.38966
-0.164028
4.73663
-0.0937931
4.58933
-0.0184273
4.48244
0.0739923
4.42701
0.153935
4.46894
0.236376
4.57616
0.309464
4.68098
0.23857
5.30849
-0.148007
6.33765
-0.843612
8.76783
-0.719861
10.5419
-0.400752
10.6089
-0.216314
10.9302
-0.144899
11.8409
0.0345422
10.1824
6.65936
-0.0246815
6.7354
0.144425
10.0329
0.263833
11.6555
0.40553
10.8362
0.627532
10.3848
1.02127
10.0614
0.732812
9.40559
0.0690933
7.05456
-0.22246
5.68049
-0.187651
4.70171
-0.128102
4.52979
-0.0569604
4.41124
0.0101086
4.35962
0.0748471
4.40416
0.137271
4.51329
0.167115
4.64993
-0.0916839
5.56697
-0.731842
6.97989
-1.20325
9.24015
-0.784909
10.1235
-0.556207
10.3765
-0.408095
10.7936
-0.3155
11.7812
-0.069038
9.96595
6.60884
-0.0239808
6.7608
0.233627
9.78119
0.429108
11.4616
0.532845
10.7286
0.736654
10.176
1.01056
9.77864
0.966659
9.43905
0.371161
7.65049
0.00576738
6.04788
-0.0998781
4.80873
-0.0627983
4.49335
-0.0139614
4.36242
0.0377195
4.30757
0.0924108
4.3493
0.137996
4.46784
0.0784309
4.70963
-0.263419
5.90885
-0.872838
7.58978
-1.04754
9.41342
-0.699129
9.77388
-0.453477
10.1382
-0.36348
10.7173
-0.158946
11.5976
0.0971004
9.72406
6.7283
0.0226768
6.73956
0.278051
9.52723
0.542875
11.1969
0.624838
10.6477
0.786203
10.0082
0.986244
9.58226
1.32145
9.11002
0.910157
8.06568
0.18548
6.7777
-0.00417265
4.9999
-0.0154966
4.50394
0.00916223
4.33751
0.0322758
4.28418
0.0659994
4.31545
0.0710014
4.46152
-0.106163
4.88634
-0.800683
6.60863
-1.21308
8.00587
-0.961138
9.16022
-0.730565
9.54373
-0.553309
9.97251
-0.493871
10.6712
-0.170967
11.2893
0.0821236
9.46802
6.82626
0.0238481
-1.31238
0.0274721
-1.68006
0.0414876
-1.80081
0.0310338
-1.97569
0.060532
-2.09713
0.0698365
-2.20949
0.0318649
-2.1263
-0.0472943
-1.99974
-0.125732
-1.87906
-0.18918
-1.80815
-0.255342
-1.73996
-0.3204
-1.66952
-0.366169
-1.63826
-0.390183
-1.62468
-0.386673
-1.63772
-0.353022
-1.63056
-0.318026
-1.65467
-0.283279
-1.66625
-0.253203
-1.68689
-0.222
-1.7045
-0.192111
-1.72228
-0.164282
-1.7393
-0.137916
-1.74585
-0.112875
-1.75178
-0.0859984
-1.79503
-0.061224
-1.82118
-0.0391985
-1.83556
-0.0213824
-1.84173
-0.0071314
-1.85253
-1.8381
0.107592
-1.42939
0.128277
-1.71601
0.116679
-1.78445
0.111976
-1.95785
0.143043
-2.05968
0.146726
-2.17204
0.0791538
-2.06777
-0.0239001
-1.91694
-0.0940955
-1.83989
-0.1481
-1.7833
-0.201884
-1.73086
-0.254348
-1.64666
-0.30252
-1.60511
-0.337832
-1.58004
-0.33886
-1.56525
-0.317684
-1.55782
-0.293593
-1.57157
-0.263426
-1.5759
-0.233464
-1.58898
-0.201784
-1.60118
-0.171172
-1.61345
-0.141366
-1.62602
-0.116666
-1.63043
-0.0953332
-1.66057
-0.0719092
-1.6834
-0.0522426
-1.70499
-0.0364565
-1.73544
-0.0231103
-1.75893
-0.0127582
-1.76815
-1.75738
0.0386536
-1.47502
0.0246982
-1.71168
0.0166406
-1.74645
0.00576261
-1.89096
0.0308688
-1.97492
0.0212356
-2.06451
-0.0558346
-1.9645
-0.123672
-1.84063
-0.181561
-1.76396
-0.227932
-1.72437
-0.272605
-1.68081
-0.322987
-1.58956
-0.363711
-1.54893
-0.386606
-1.51755
-0.386238
-1.49385
-0.363341
-1.48503
-0.337256
-1.4868
-0.302628
-1.49052
-0.267694
-1.49999
-0.229156
-1.50708
-0.193207
-1.51567
-0.161514
-1.51675
-0.135345
-1.56204
-0.109713
-1.58559
-0.0854731
-1.6064
-0.0647561
-1.63804
-0.0468218
-1.66979
-0.0284008
-1.69839
-0.0120718
-1.71439
-1.69315
-0.00378402
-1.47663
-0.0359795
-1.66773
-0.0597059
-1.67503
-0.0896508
-1.77313
-0.0733374
-1.84122
-0.075303
-1.91651
-0.145151
-1.82444
-0.206385
-1.71515
-0.255605
-1.64672
-0.295121
-1.62111
-0.335361
-1.58758
-0.372078
-1.51385
-0.407252
-1.47029
-0.422142
-1.4327
-0.415073
-1.41144
-0.392205
-1.40192
-0.361178
-1.40323
-0.323696
-1.4098
-0.284196
-1.4193
-0.242403
-1.39638
-0.208775
-1.41917
-0.179551
-1.44353
-0.148835
-1.48
-0.120994
-1.50924
-0.096838
-1.55702
-0.0771721
-1.58728
-0.0579829
-1.62003
-0.0393752
-1.64878
-0.0201692
-1.66718
-1.64466
-0.0145214
-1.47014
-0.0593672
-1.59751
-0.0916349
-1.58267
-0.121067
-1.62872
-0.115456
-1.67884
-0.116774
-1.73676
-0.183288
-1.66081
-0.239809
-1.55438
-0.277108
-1.50506
-0.30948
-1.49271
-0.350781
-1.46132
-0.387736
-1.41095
-0.416084
-1.36714
-0.421502
-1.33853
-0.407891
-1.31917
-0.38269
-1.31459
-0.354073
-1.3193
-0.318107
-1.33461
-0.279551
-1.34713
-0.244093
-1.3385
-0.212603
-1.36665
-0.182501
-1.40214
-0.150678
-1.44264
-0.122402
-1.4778
-0.0990305
-1.51666
-0.0789569
-1.5467
-0.0589605
-1.57909
-0.0394949
-1.60621
-0.0200943
-1.62051
-1.59916
-0.0196788
-1.44955
-0.0717507
-1.50754
-0.111526
-1.47366
-0.142629
-1.46743
-0.148154
-1.51055
-0.150975
-1.55825
-0.21817
-1.51031
-0.265195
-1.40966
-0.297991
-1.36907
-0.331853
-1.35518
-0.361245
-1.33545
-0.395385
-1.2997
-0.414331
-1.26366
-0.415695
-1.23878
-0.402345
-1.22837
-0.376099
-1.23149
-0.349049
-1.24368
-0.317614
-1.27079
-0.280107
-1.29005
-0.246581
-1.30627
-0.216083
-1.33526
-0.185094
-1.37792
-0.152889
-1.4065
-0.124191
-1.44042
-0.102226
-1.48206
-0.0808238
-1.51326
-0.06112
-1.54299
-0.0425543
-1.56666
-0.0218128
-1.57923
-1.55544
-0.0312275
-1.41596
-0.0973822
-1.39639
-0.142671
-1.35245
-0.169742
-1.31241
-0.18295
-1.35895
-0.184832
-1.41173
-0.250675
-1.3714
-0.2939
-1.29428
-0.323241
-1.26143
-0.352771
-1.24315
-0.38342
-1.22683
-0.40748
-1.20078
-0.418575
-1.16049
-0.41609
-1.14853
-0.400364
-1.14888
-0.37528
-1.1318
-0.352332
-1.18128
-0.317179
-1.21354
-0.290805
-1.21063
-0.257622
-1.27028
-0.224323
-1.30797
-0.191359
-1.3578
-0.158339
-1.37705
-0.127778
-1.41315
-0.10495
-1.45184
-0.0831065
-1.48201
-0.0633349
-1.50826
-0.0435583
-1.52939
-0.0226774
-1.53934
-1.51609
-0.0537837
-1.35454
-0.12146
-1.27645
-0.172418
-1.22599
-0.197907
-1.17264
-0.219834
-1.23234
-0.222737
-1.30116
-0.286495
-1.27003
-0.328052
-1.2152
-0.356812
-1.18815
-0.386405
-1.16642
-0.407858
-1.15372
-0.421415
-1.13004
-0.427697
-1.09721
-0.424476
-1.07609
-0.407456
-1.0871
-0.384537
-1.08355
-0.359507
-1.11859
-0.327328
-1.16607
-0.305514
-1.18595
-0.271181
-1.23832
-0.235835
-1.2759
-0.199997
-1.32054
-0.166107
-1.35287
-0.133887
-1.392
-0.109818
-1.42963
-0.0878748
-1.4554
-0.0677377
-1.47804
-0.0474265
-1.49678
-0.0235619
-1.50791
-1.4816
-0.0749459
-1.26676
-0.148347
-1.14971
-0.202172
-1.09957
-0.232445
-1.05204
-0.250557
-1.1352
-0.26246
-1.21595
-0.328124
-1.20254
-0.369867
-1.17032
-0.40385
-1.14271
-0.424835
-1.12278
-0.438142
-1.11331
-0.446089
-1.09217
-0.446007
-1.0611
-0.439133
-1.03114
-0.420616
-1.04703
-0.397433
-1.0515
-0.370695
-1.07021
-0.342282
-1.10908
-0.319521
-1.1651
-0.284923
-1.2084
-0.247343
-1.25308
-0.210959
-1.29995
-0.17542
-1.33637
-0.142438
-1.41403
-0.115607
-1.46044
-0.0939154
-1.44058
-0.0729796
-1.45937
-0.050402
-1.4783
-0.0267692
-1.49053
-1.46495
-0.0971789
-1.15053
-0.169217
-1.02269
-0.222092
-0.977254
-0.25559
-0.958008
-0.281141
-1.04981
-0.303907
-1.14546
-0.37139
-1.15446
-0.421025
-1.13673
-0.447294
-1.12151
-0.464136
-1.11443
-0.472801
-1.10382
-0.476404
-1.07866
-0.471036
-1.04789
-0.459899
-1.01786
-0.438886
-1.02502
-0.41457
-1.02813
-0.387511
-1.05715
-0.364866
-1.08361
-0.33248
-1.14649
-0.29989
-1.19389
-0.260424
-1.24443
-0.222472
-1.29057
-0.187273
-1.33102
-0.151523
-1.39069
-0.119069
-1.43383
-0.097744
-1.47777
-0.0756859
-1.4555
-0.0512392
-1.47436
-0.0252148
-1.48615
-1.45748
-0.102539
-1.02282
-0.172929
-0.893173
-0.235534
-0.855294
-0.269075
-0.876717
-0.308507
-0.969818
-0.338954
-1.0815
-0.408399
-1.11222
-0.45912
-1.11113
-0.488037
-1.11203
-0.502172
-1.11395
-0.508316
-1.10746
-0.50759
-1.08497
-0.500276
-1.05365
-0.4846
-1.02128
-0.460163
-1.01747
-0.433735
-1.01715
-0.405977
-1.04925
-0.382044
-1.0823
-0.348696
-1.13633
-0.311352
-1.18377
-0.272668
-1.2377
-0.235967
-1.30229
-0.196975
-1.33527
-0.158002
-1.3818
-0.128752
-1.42233
-0.0993737
-1.46596
-0.0778514
-1.46159
-0.0519181
-1.48052
-0.0258434
-1.48866
-1.45741
-0.102512
-0.888631
-0.17247
-0.776246
-0.235017
-0.745173
-0.28062
-0.792649
-0.330185
-0.890637
-0.366037
-1.0195
-0.436397
-1.06601
-0.487454
-1.07875
-0.516392
-1.0989
-0.534675
-1.11431
-0.542141
-1.11701
-0.538988
-1.10111
-0.530149
-1.07073
-0.511761
-1.03828
-0.484179
-1.02364
-0.454263
-1.01935
-0.425845
-1.05112
-0.398647
-1.07962
-0.36186
-1.11083
-0.322236
-1.17966
-0.288497
-1.24163
-0.251032
-1.29431
-0.205978
-1.35165
-0.165574
-1.39899
-0.135811
-1.42183
-0.102248
-1.45911
-0.078437
-1.47471
-0.0523649
-1.49523
-0.0252452
-1.50179
-1.46768
-0.0958267
-0.756599
-0.172323
-0.654892
-0.237378
-0.641915
-0.297226
-0.702216
-0.342934
-0.816838
-0.386708
-0.950862
-0.456341
-1.00792
-0.509412
-1.03688
-0.542126
-1.07994
-0.563441
-1.11027
-0.572818
-1.12571
-0.57048
-1.11999
-0.559899
-1.09479
-0.538829
-1.0635
-0.508624
-1.04182
-0.475777
-1.03143
-0.445581
-1.03951
-0.415452
-1.07975
-0.375516
-1.11748
-0.332718
-1.17534
-0.295682
-1.23612
-0.259521
-1.29635
-0.222206
-1.33808
-0.178017
-1.39206
-0.141374
-1.43439
-0.110072
-1.46877
-0.0812032
-1.49297
-0.0536296
-1.51638
-0.0263791
-1.52462
-1.49373
-0.0990527
-0.618264
-0.171213
-0.544625
-0.239769
-0.542259
-0.300852
-0.617385
-0.352526
-0.740141
-0.401605
-0.876511
-0.46876
-0.942274
-0.52116
-0.990821
-0.562329
-1.05054
-0.586828
-1.10127
-0.599369
-1.13098
-0.598813
-1.1387
-0.588335
-1.12252
-0.565462
-1.0962
-0.532106
-1.06825
-0.494779
-1.05169
-0.464692
-1.0348
-0.43031
-1.09032
-0.386261
-1.13167
-0.341739
-1.18092
-0.305755
-1.23339
-0.268307
-1.29541
-0.233971
-1.33764
-0.196184
-1.41025
-0.15263
-1.47598
-0.117685
-1.51177
-0.0848831
-1.51425
-0.055384
-1.54219
-0.0274422
-1.55367
-1.55971
-0.100573
-0.476953
-0.172811
-0.438564
-0.238728
-0.450378
-0.299736
-0.534327
-0.356838
-0.660393
-0.410982
-0.798381
-0.474742
-0.873557
-0.52923
-0.941514
-0.575333
-1.01458
-0.604527
-1.08546
-0.62216
-1.12991
-0.624987
-1.15366