/*--------------------------------*- C++ -*----------------------------------*\
| =========                 |                                                 |
| \\      /  F ield         | OpenFOAM: The Open Source CFD Toolbox           |
|  \\    /   O peration     | Version:  2112                                  |
|   \\  /    A nd           | Website:  www.openfoam.com                      |
|    \\/     M anipulation  |                                                 |
\*---------------------------------------------------------------------------*/
FoamFile
{
    version     2.0;
    format      ascii;
    arch        "LSB;label=32;scalar=64";
    class       volScalarField;
    location    "0.00704";
    object      epsilon;
}
// * * * * * * * * * * * * * * * * * * * * * * * * * * * * * * * * * * * * * //

dimensions      [0 2 -3 0 0 0 0];

internalField   nonuniform List<scalar> 
13875
(
1.1602e+06
2.94633e+07
3.28278e+07
3.28519e+07
3.28947e+07
3.28325e+07
3.29287e+07
3.29401e+07
3.28911e+07
3.28808e+07
3.29153e+07
3.29177e+07
3.28782e+07
3.28437e+07
3.28609e+07
3.29107e+07
3.29483e+07
3.29131e+07
3.28931e+07
3.28605e+07
3.28992e+07
3.28309e+07
3.28019e+07
2.94869e+07
1.17827e+06
1.31397e+06
2.27492e+07
2.53591e+07
2.52456e+07
2.52774e+07
2.52264e+07
2.52553e+07
2.52666e+07
2.52368e+07
2.52326e+07
2.52462e+07
2.52528e+07
2.52154e+07
2.51937e+07
2.52003e+07
2.52504e+07
2.5246e+07
2.52362e+07
2.52252e+07
2.52291e+07
2.52696e+07
2.522e+07
2.5327e+07
2.27623e+07
1.34243e+06
1.57311e+06
1.97084e+07
2.18327e+07
2.16285e+07
2.17019e+07
2.16576e+07
2.16023e+07
2.15646e+07
2.15291e+07
2.15328e+07
2.15401e+07
2.15493e+07
2.16119e+07
2.16027e+07
2.15968e+07
2.15474e+07
2.15318e+07
2.153e+07
2.15488e+07
2.1641e+07
2.16834e+07
2.1602e+07
2.17894e+07
1.96958e+07
1.58456e+06
1.81386e+06
1.7386e+07
1.90379e+07
1.88752e+07
1.89675e+07
1.89289e+07
1.88629e+07
1.88107e+07
1.87815e+07
1.87785e+07
1.87851e+07
1.87897e+07
1.8888e+07
1.88806e+07
1.88762e+07
1.87876e+07
1.8794e+07
1.87799e+07
1.88066e+07
1.89152e+07
1.89522e+07
1.88579e+07
1.90143e+07
1.73683e+07
1.82033e+06
2.02315e+06
1.54528e+07
1.67706e+07
1.66125e+07
1.67035e+07
1.66676e+07
1.65976e+07
1.65507e+07
1.65326e+07
1.65294e+07
1.65384e+07
1.65344e+07
1.66292e+07
1.66271e+07
1.66193e+07
1.65337e+07
1.65474e+07
1.65308e+07
1.65526e+07
1.6655e+07
1.66904e+07
1.6605e+07
1.67444e+07
1.54304e+07
2.03587e+06
2.2071e+06
1.37145e+07
1.49268e+07
1.47287e+07
1.48338e+07
1.47807e+07
1.47073e+07
1.46605e+07
1.46487e+07
1.4648e+07
1.46577e+07
1.46476e+07
1.47396e+07
1.47421e+07
1.47314e+07
1.46467e+07
1.46676e+07
1.46478e+07
1.46668e+07
1.47747e+07
1.48196e+07
1.47291e+07
1.49041e+07
1.38465e+07
2.22262e+06
2.42357e+06
1.22556e+07
1.34772e+07
1.3199e+07
1.32703e+07
1.31938e+07
1.31215e+07
1.30707e+07
1.30628e+07
1.30621e+07
1.30718e+07
1.30562e+07
1.31466e+07
1.31515e+07
1.31373e+07
1.3055e+07
1.30836e+07
1.30618e+07
1.30854e+07
1.32006e+07
1.32573e+07
1.32015e+07
1.34222e+07
1.19498e+07
2.42948e+06
2.66749e+06
1.06223e+07
1.23148e+07
1.19669e+07
1.20003e+07
1.18667e+07
1.17855e+07
1.17279e+07
1.17186e+07
1.17177e+07
1.17293e+07
1.17071e+07
1.17961e+07
1.18045e+07
1.17873e+07
1.17049e+07
1.17429e+07
1.17211e+07
1.17514e+07
1.18843e+07
1.19815e+07
1.19654e+07
1.22648e+07
1.05428e+07
2.69528e+06
3.49866e+06
1.0221e+07
1.14882e+07
1.10278e+07
1.09379e+07
1.07558e+07
1.06561e+07
1.05932e+07
1.05792e+07
1.05783e+07
1.05944e+07
1.05666e+07
1.06532e+07
1.06652e+07
1.06464e+07
1.05657e+07
1.06087e+07
1.05873e+07
1.06251e+07
1.07802e+07
1.0923e+07
1.10218e+07
1.14752e+07
1.0338e+07
3.57517e+06
6.84026e+06
1.22278e+07
1.12022e+07
1.04295e+07
1.01557e+07
9.89922e+06
9.76999e+06
9.70937e+06
9.69058e+06
9.68983e+06
9.70529e+06
9.67594e+06
9.75627e+06
9.77073e+06
9.75274e+06
9.68325e+06
9.71982e+06
9.70932e+06
9.74602e+06
9.91548e+06
1.01436e+07
1.03605e+07
1.11607e+07
1.2129e+07
6.89371e+06
1.49188e+07
1.86742e+07
1.20466e+07
1.03154e+07
9.59691e+06
9.29183e+06
9.1313e+06
9.04894e+06
9.02249e+06
9.02084e+06
9.03189e+06
9.00349e+06
9.07389e+06
9.09057e+06
9.07931e+06
9.0298e+06
9.0567e+06
9.06289e+06
9.12487e+06
9.2878e+06
9.60981e+06
1.02682e+07
1.18777e+07
1.79385e+07
1.49975e+07
2.5479e+07
6.86722e+07
1.81218e+07
1.06809e+07
9.67914e+06
8.9847e+06
8.70306e+06
8.589e+06
8.54328e+06
8.53638e+06
8.53947e+06
8.51541e+06
8.57018e+06
8.58892e+06
8.58764e+06
8.55947e+06
8.58266e+06
8.61352e+06
8.70361e+06
9.01843e+06
9.65322e+06
1.05428e+07
1.7554e+07
6.72895e+07
2.50299e+07
2.65954e+07
7.5974e+07
8.66522e+07
2.39739e+07
1.09046e+07
9.0942e+06
8.72447e+06
8.44333e+06
8.33871e+06
8.3022e+06
8.28607e+06
8.26075e+06
8.29705e+06
8.31758e+06
8.32996e+06
8.33248e+06
8.38577e+06
8.49615e+06
8.76767e+06
9.16037e+06
1.12937e+07
2.25585e+07
8.07778e+07
7.65796e+07
2.60796e+07
2.63536e+07
5.51317e+07
7.96915e+07
1.04781e+08
5.79097e+07
1.30818e+07
9.63888e+06
8.83401e+06
8.59968e+06
8.58361e+06
8.56981e+06
8.54677e+06
8.57509e+06
8.59496e+06
8.615e+06
8.63399e+06
8.66981e+06
8.90046e+06
9.94472e+06
1.44559e+07
6.58961e+07
9.09738e+07
7.54008e+07
5.4532e+07
2.57487e+07
2.53342e+07
4.25546e+07
5.80548e+07
7.26411e+07
7.54591e+07
7.5293e+07
2.34877e+07
1.31988e+07
1.12164e+07
1.04867e+07
1.01872e+07
1.00711e+07
1.00657e+07
1.00968e+07
1.01826e+07
1.0421e+07
1.11121e+07
1.32236e+07
2.56544e+07
7.7404e+07
7.53739e+07
6.60709e+07
5.66688e+07
4.22821e+07
2.64147e+07
2.4714e+07
3.35484e+07
4.34211e+07
5.45698e+07
5.95383e+07
6.82776e+07
5.15659e+07
4.50363e+07
4.25715e+07
3.39629e+07
3.56288e+07
3.68189e+07
3.76589e+07
3.73951e+07
3.6165e+07
3.41093e+07
4.14538e+07
4.86106e+07
5.21105e+07
6.90815e+07
5.84013e+07
5.05989e+07
4.27383e+07
3.34857e+07
2.58132e+07
2.00966e+07
2.5334e+07
3.24366e+07
4.23097e+07
5.01209e+07
6.29678e+07
7.24657e+07
7.35518e+07
5.9262e+07
5.01332e+07
5.28636e+07
5.56763e+07
5.73578e+07
5.67781e+07
5.40056e+07
5.36549e+07
5.92956e+07
7.28939e+07
7.3035e+07
6.28728e+07
4.79266e+07
3.92527e+07
3.1104e+07
2.46289e+07
1.99998e+07
1.48585e+07
1.91396e+07
2.66527e+07
3.76607e+07
4.62251e+07
5.39328e+07
6.55126e+07
7.14694e+07
5.12491e+07
3.77559e+07
3.55707e+07
3.60078e+07
3.67513e+07
3.6435e+07
3.61999e+07
4.08157e+07
5.13417e+07
6.7324e+07
6.55794e+07
5.48651e+07
4.5579e+07
3.62981e+07
2.57203e+07
1.86497e+07
1.45751e+07
1.21642e+07
1.66695e+07
2.4268e+07
3.90614e+07
4.89825e+07
4.60387e+07
4.98726e+07
5.63598e+07
4.54904e+07
3.37003e+07
2.8849e+07
2.7585e+07
2.74932e+07
2.79786e+07
2.95927e+07
3.47922e+07
4.36127e+07
5.29664e+07
5.02584e+07
4.71196e+07
5.07475e+07
3.89084e+07
2.41345e+07
1.6513e+07
1.20265e+07
1.15233e+07
1.78598e+07
2.5327e+07
3.93401e+07
4.41094e+07
3.88148e+07
3.88857e+07
4.33977e+07
3.9299e+07
3.11243e+07
2.54348e+07
2.25506e+07
2.17082e+07
2.31023e+07
2.64799e+07
3.16904e+07
3.72577e+07
4.09039e+07
3.91031e+07
3.99015e+07
4.50808e+07
3.79922e+07
2.54758e+07
1.81666e+07
1.16596e+07
2.75447e+07
5.09966e+07
3.91708e+07
3.27535e+07
3.49218e+07
3.14441e+07
3.11203e+07
3.47424e+07
3.34734e+07
2.75817e+07
2.2009e+07
1.85262e+07
1.74612e+07
1.93155e+07
2.32923e+07
2.80682e+07
3.17096e+07
3.29127e+07
3.12912e+07
3.22704e+07
3.56248e+07
3.23144e+07
4.21213e+07
5.24211e+07
3.2324e+07
8.79005e+07
2.78355e+08
5.10305e+07
2.62148e+07
2.76947e+07
2.56623e+07
2.55392e+07
2.84676e+07
2.82781e+07
2.3847e+07
1.8782e+07
1.52773e+07
1.41849e+07
1.60558e+07
1.99493e+07
2.41491e+07
2.67418e+07
2.71702e+07
2.56344e+07
2.621e+07
2.80129e+07
2.61898e+07
5.70781e+07
2.77494e+08
9.74905e+07
9.47175e+07
1.78529e+08
4.24372e+07
2.17321e+07
2.24683e+07
2.13092e+07
2.11819e+07
2.36256e+07
2.3778e+07
2.02479e+07
1.58425e+07
1.26627e+07
1.16165e+07
1.32737e+07
1.67613e+07
2.03984e+07
2.24128e+07
2.26478e+07
2.12284e+07
2.15838e+07
2.25426e+07
2.17433e+07
4.47134e+07
1.74712e+08
9.38354e+07
8.10765e+07
1.69527e+08
3.34364e+07
1.8539e+07
1.85081e+07
1.77473e+07
1.76603e+07
1.96625e+07
1.99527e+07
1.69985e+07
1.32034e+07
1.04803e+07
9.61639e+06
1.10483e+07
1.40712e+07
1.72044e+07
1.88302e+07
1.88917e+07
1.77703e+07
1.80062e+07
1.86231e+07
1.87533e+07
3.53214e+07
1.75063e+08
8.11729e+07
7.32546e+07
1.58506e+08
2.79833e+07
1.62117e+07
1.56097e+07
1.49466e+07
1.49378e+07
1.65198e+07
1.67777e+07
1.43089e+07
1.1097e+07
8.7808e+06
8.0582e+06
9.27136e+06
1.18745e+07
1.45399e+07
1.58799e+07
1.58769e+07
1.50161e+07
1.52029e+07
1.57893e+07
1.64911e+07
3.00846e+07
1.70188e+08
7.37085e+07
6.68163e+07
1.55664e+08
2.4333e+07
1.42126e+07
1.33781e+07
1.27189e+07
1.28071e+07
1.40026e+07
1.41685e+07
1.20976e+07
9.40125e+06
7.43673e+06
6.82416e+06
7.84172e+06
1.00392e+07
1.22856e+07
1.34145e+07
1.34178e+07
1.27899e+07
1.28893e+07
1.35508e+07
1.44314e+07
2.57992e+07
1.62999e+08
6.76711e+07
6.24312e+07
1.40881e+08
2.09099e+07
1.24857e+07
1.16129e+07
1.09327e+07
1.10743e+07
1.19358e+07
1.19495e+07
1.02058e+07
7.98132e+06
6.35212e+06
5.84276e+06
6.71795e+06
8.58688e+06
1.04665e+07
1.14392e+07
1.14773e+07
1.102e+07
1.11044e+07
1.18475e+07
1.27691e+07
2.23578e+07
1.50177e+08
6.37117e+07
5.9079e+07
1.31573e+08
1.86883e+07
1.11097e+07
1.0245e+07
9.55486e+06
9.6785e+06
1.02835e+07
1.01887e+07
8.706e+06
6.85595e+06
5.48581e+06
5.04922e+06
5.79363e+06
7.36392e+06
8.93929e+06
9.79087e+06
9.88264e+06
9.58388e+06
9.67295e+06
1.04446e+07
1.13564e+07
1.99144e+07
1.42056e+08
5.98456e+07
5.50651e+07
1.25972e+08
1.71367e+07
9.97077e+06
9.12801e+06
8.4826e+06
8.53411e+06
8.92425e+06
8.73999e+06
7.48116e+06
5.94348e+06
4.78347e+06
4.40302e+06
5.03351e+06
6.3473e+06
7.65726e+06
8.41655e+06
8.56542e+06
8.39741e+06
8.52025e+06
9.2621e+06
1.0143e+07
1.78373e+07
1.27699e+08
5.67163e+07
5.0982e+07
1.14566e+08
1.58172e+07
9.0328e+06
8.14816e+06
7.59451e+06
7.59119e+06
7.77907e+06
7.50909e+06
6.42749e+06
5.15577e+06
4.19226e+06
3.87034e+06
4.42341e+06
5.54593e+06
6.64904e+06
7.31707e+06
7.5012e+06
7.44448e+06
7.60435e+06
8.27062e+06
9.17054e+06
1.65125e+07
1.19009e+08
5.33524e+07
4.73883e+07
1.00953e+08
1.47079e+07
8.28802e+06
7.35477e+06
6.84689e+06
6.80853e+06
6.84806e+06
6.52487e+06
5.59536e+06
4.53102e+06
3.71161e+06
3.4297e+06
3.90485e+06
4.85407e+06
5.77912e+06
6.38174e+06
6.60807e+06
6.65306e+06
6.82409e+06
7.41652e+06
8.37525e+06
1.5173e+07
1.05392e+08
4.94239e+07
4.42457e+07
9.16384e+07
1.38455e+07
7.73025e+06
6.66342e+06
6.19379e+06
6.14096e+06
6.08018e+06
5.72908e+06
4.91787e+06
4.01328e+06
3.30991e+06
3.0611e+06
3.4701e+06
4.28077e+06
5.07173e+06
5.61481e+06
5.86703e+06
5.98214e+06
6.14741e+06
6.68345e+06
7.76597e+06
1.4054e+07
9.25943e+07
4.63697e+07
4.1335e+07
7.95192e+07
1.29687e+07
7.2931e+06
6.08289e+06
5.63707e+06
5.54758e+06
5.41536e+06
5.03555e+06
4.32868e+06
3.56655e+06
2.96679e+06
2.75174e+06
3.11367e+06
3.81613e+06
4.49071e+06
4.98326e+06
5.25287e+06
5.40258e+06
5.57726e+06
6.08041e+06
7.28909e+06
1.32865e+07
8.29394e+07
4.34382e+07
3.90507e+07
6.99237e+07
1.21006e+07
6.95986e+06
5.62942e+06
5.16415e+06
5.02218e+06
4.86042e+06
4.47735e+06
3.85574e+06
3.1993e+06
2.6786e+06
2.48777e+06
2.80251e+06
3.4107e+06
3.99575e+06
4.44048e+06
4.72305e+06
4.88662e+06
5.08466e+06
5.59058e+06
6.92109e+06
1.25842e+07
7.3311e+07
4.0553e+07
3.69834e+07
6.28248e+07
1.11953e+07
6.69493e+06
5.31145e+06
4.74673e+06
4.57153e+06
4.38377e+06
4.00611e+06
3.45501e+06
2.88906e+06
2.43293e+06
2.26358e+06
2.53946e+06
3.06795e+06
3.57611e+06
3.98381e+06
4.26452e+06
4.43914e+06
4.66878e+06
5.23524e+06
6.66432e+06
1.17456e+07
6.59056e+07
3.82186e+07
3.47831e+07
5.59755e+07
1.03398e+07
6.4628e+06
5.07546e+06
4.39324e+06
4.16968e+06
3.95525e+06
3.59914e+06
3.10888e+06
2.61416e+06
2.21762e+06
2.06894e+06
2.3158e+06
2.78437e+06
3.23169e+06
3.60162e+06
3.8666e+06
4.05731e+06
4.31252e+06
4.98524e+06
6.46795e+06
1.09315e+07
6.02907e+07
3.61703e+07
3.30423e+07
5.09411e+07
9.60048e+06
6.39085e+06
4.91519e+06
4.10638e+06
3.83205e+06
3.593e+06
3.25198e+06
2.81898e+06
2.38565e+06
2.03449e+06
1.90118e+06
2.11859e+06
2.53092e+06
2.92567e+06
3.26073e+06
3.5168e+06
3.72467e+06
4.01193e+06
4.80777e+06
6.37771e+06
1.00771e+07
5.35147e+07
3.40236e+07
3.13481e+07
4.7564e+07
8.9289e+06
6.24046e+06
4.81978e+06
3.89633e+06
3.53553e+06
3.27833e+06
2.95638e+06
2.5719e+06
2.18741e+06
1.87415e+06
1.75406e+06
1.94677e+06
2.31378e+06
2.66475e+06
2.96564e+06
3.21419e+06
3.43407e+06
3.79294e+06
4.71239e+06
6.28819e+06
9.25974e+06
4.83469e+07
3.22864e+07
2.95504e+07
4.34987e+07
8.20184e+06
5.92208e+06
4.79376e+06
3.74509e+06
3.28886e+06
3.00467e+06
2.69263e+06
2.34897e+06
2.00992e+06
1.73235e+06
1.62573e+06
1.80034e+06
2.12858e+06
2.44037e+06
2.71306e+06
2.95657e+06
3.19267e+06
3.63072e+06
4.69438e+06
6.06825e+06
8.47814e+06
4.48769e+07
3.07593e+07
2.81333e+07
4.05423e+07
7.5385e+06
5.59609e+06
4.85753e+06
3.64793e+06
3.09514e+06
2.77532e+06
2.4731e+06
2.16195e+06
1.85702e+06
1.60738e+06
1.51151e+06
1.6671e+06
1.96128e+06
2.24144e+06
2.49048e+06
2.73404e+06
3.00139e+06
3.52664e+06
4.69642e+06
5.70732e+06
7.75368e+06
4.15551e+07
2.90752e+07
2.69985e+07
3.81212e+07
7.07015e+06
5.26021e+06
4.91567e+06
3.61734e+06
2.94988e+06
2.58942e+06
2.28466e+06
1.99795e+06
1.72254e+06
1.497e+06
1.4106e+06
1.5504e+06
1.81338e+06
2.06737e+06
2.29917e+06
2.55079e+06
2.8626e+06
3.47104e+06
4.87214e+06
5.37147e+06
7.16382e+06
3.90707e+07
2.76381e+07
2.588e+07
3.5776e+07
6.55272e+06
4.87306e+06
4.7585e+06
3.62733e+06
2.83786e+06
2.44726e+06
2.12509e+06
1.85126e+06
1.59986e+06
1.39709e+06
1.31968e+06
1.44733e+06
1.68697e+06
1.91974e+06
2.14234e+06
2.41112e+06
2.75385e+06
3.48878e+06
4.87717e+06
5.04627e+06
7.09054e+06
3.66344e+07
2.64665e+07
2.49517e+07
3.38094e+07
6.14854e+06
4.51161e+06
4.50166e+06
3.77612e+06
2.77102e+06
2.33708e+06
1.99923e+06
1.72836e+06
1.4945e+06
1.30964e+06
1.23857e+06
1.35377e+06
1.57079e+06
1.78803e+06
2.01129e+06
2.30224e+06
2.67951e+06
3.57292e+06
4.64237e+06
4.65925e+06
6.59647e+06
3.43838e+07
2.53983e+07
2.41849e+07
3.18745e+07
6.25454e+06
4.20517e+06
4.20089e+06
3.86762e+06
2.77859e+06
2.25103e+06
1.90506e+06
1.62739e+06
1.40209e+06
1.23108e+06
1.1651e+06
1.27009e+06
1.46955e+06
1.67736e+06
1.91012e+06
2.21955e+06
2.67901e+06
3.81927e+06
4.34279e+06
4.30885e+06
6.31116e+06
3.23753e+07
2.45777e+07
2.33846e+07
3.02416e+07
5.88657e+06
3.91088e+06
3.87878e+06
3.75916e+06
2.86748e+06
2.19388e+06
1.82473e+06
1.54658e+06
1.32261e+06
1.16151e+06
1.09993e+06
1.19801e+06
1.38531e+06
1.59093e+06
1.82951e+06
2.16638e+06
2.8185e+06
3.87942e+06
4.0199e+06
4.04057e+06
6.34016e+06
3.06358e+07
2.3898e+07
2.26739e+07
2.8521e+07
5.96804e+06
3.69169e+06
3.57258e+06
3.53426e+06
3.10806e+06
2.21191e+06
1.76661e+06
1.48731e+06
1.26222e+06
1.10368e+06
1.0434e+06
1.13607e+06
1.31866e+06
1.52402e+06
1.76563e+06
2.17406e+06
3.0822e+06
3.65383e+06
3.70746e+06
3.78054e+06
6.13797e+06
2.90538e+07
2.32041e+07
2.19959e+07
2.69643e+07
6.12184e+06
3.53763e+06
3.31808e+06
3.3012e+06
3.16556e+06
2.37315e+06
1.73548e+06
1.4335e+06
1.21553e+06
1.05986e+06
995335
1.08887e+06
1.26686e+06
1.46742e+06
1.7237e+06
2.33554e+06
3.18047e+06
3.40518e+06
3.43672e+06
3.5868e+06
6.08455e+06
2.74529e+07
2.24895e+07
2.10057e+07
2.53596e+07
5.9841e+06
3.38254e+06
3.10438e+06
3.07376e+06
2.98909e+06
2.63025e+06
1.78476e+06
1.38993e+06
1.1745e+06
1.02475e+06
958429
1.05226e+06
1.22329e+06
1.42262e+06
1.77057e+06
2.62894e+06
3.01039e+06
3.15522e+06
3.2121e+06
3.4707e+06
6.19188e+06
2.56126e+07
2.14565e+07
1.98045e+07
2.35682e+07
5.90965e+06
3.27315e+06
2.92465e+06
2.85738e+06
2.80766e+06
2.71342e+06
1.98972e+06
1.38234e+06
1.14117e+06
994873
930626
1.02063e+06
1.18499e+06
1.40164e+06
1.94015e+06
2.75896e+06
2.83082e+06
2.91757e+06
3.01271e+06
3.34633e+06
6.00011e+06
2.37267e+07
2.01948e+07
1.72133e+07
2.09433e+07
5.74348e+06
3.17441e+06
2.77059e+06
2.67073e+06
2.62181e+06
2.56665e+06
2.23362e+06
1.47135e+06
1.12578e+06
968405
905697
992359
1.16263e+06
1.46165e+06
2.23238e+06
2.62344e+06
2.64627e+06
2.714e+06
2.83739e+06
3.22463e+06
5.74103e+06
2.10386e+07
1.75489e+07
672334
1.1069e+06
1.64648e+06
1.63707e+06
1.31087e+06
1.04769e+06
880298
802650
812240
844431
839949
739848
516235
345638
238392
180441
152164
139754
135452
135506
138352
143536
151265
162360
180031
219441
329345
440466
430359
390049
879209
1.33787e+06
1.74333e+06
1.59493e+06
1.22886e+06
962990
800582
726728
733594
759356
774449
723598
524998
352825
242041
181704
151592
138115
133102
132695
135194
140159
148113
161332
188700
272759
433743
461565
437031
415898
1.00073e+06
1.56771e+06
1.84755e+06
1.54289e+06
1.14809e+06
890782
741180
676993
685358
709587
721082
658940
479481
330724
232598
177455
148910
135655
130476
129856
132145
137056
145877
163144
213289
355212
439929
443613
431015
422734
1.1997e+06
1.79688e+06
1.91926e+06
1.47759e+06
1.06567e+06
811951
673395
628032
646727
668280
676387
618154
463203
321475
227648
174260
146366
133238
128008
127359
129661
134929
145709
173053
263482
393002
428924
426389
416988
424530
1.45467e+06
2.00894e+06
1.94608e+06
1.3971e+06
980984
742331
619788
586391
616815
635127
635949
575351
435022
302279
217537
169011
143181
130715
125712
125245
127871
134294
149572
200924
338230
392559
410121
401232
394614
424083
1.76998e+06
2.19045e+06
1.92695e+06
1.30658e+06
894052
675987
579373
557677
594310
610813
602527
539114
407006
284458
206803
163118
139707
128367
123961
123961
127371
136300
163018
255686
363663
379180
385956
375436
373393
422174
2.05803e+06
2.34506e+06
1.88222e+06
1.21205e+06
808086
623676
550866
542181
578665
597633
585951
510836
377660
263296
194752
156531
136193
126349
122885
123703
128811
143328
195949
321943
359314
359927
361132
354741
357051
420726
2.36259e+06
2.48013e+06
1.82709e+06
1.12028e+06
744206
590194
534197
531642
569304
594278
577169
478275
344381
240288
182238
150353
133304
125220
122929
125055
133380
161250
257607
337079
344900
340929
341340
339765
342686
418018
2.6653e+06
2.5884e+06
1.76503e+06
1.04426e+06
704781
573274
522438
517596
555636
585651
555582
441126
305423
217574
170897
145497
131696
125509
124677
129092
144154
200032
309337
329858
329901
325890
327269
327330
329100
412744
2.99563e+06
2.66393e+06
1.70545e+06
1.00188e+06
690674
560823
502158
496411
534138
554352
507771
390255
264284
198034
162555
142579
131953
127728
128869
137436
169374
266912
317913
317581
317825
312678
315822
315844
313545
402225
3.33906e+06
2.72623e+06
1.6771e+06
988006
684784
546397
480773
469053
494175
494569
435330
330478
231309
184552
158294
142690
134855
132737
137169
156000
222418
300036
308528
306452
307105
301368
305056
302031
295032
389275
3.6636e+06
2.80933e+06
1.68131e+06
996363
689015
540824
466892
441517
446046
423956
360258
281091
213298
178453
158919
146615
141346
142147
153981
197696
281903
300556
297440
296620
296866
290209
292254
285951
276353
376415
3.96686e+06
2.91552e+06
1.71628e+06
1.0264e+06
707750
548651
463979
423926
403940
367310
309547
256506
209675
180998
165432
156334
154140
161667
193014
266543
294417
292298
287799
287269
285898
278566
278094
270095
260304
365488
4.25599e+06
3.05139e+06
1.78203e+06
1.0768e+06
746801
576383
478179
418703
381502
340721
294747
258260
221896
198263
183539
178488
183203
207864
264550
291057
291758
284107
279326
277823
274413
267326
264486
256339
246950
356029
4.54096e+06
3.22196e+06
1.87963e+06
1.15097e+06
806406
631414
526926
455254
408498
368213
332021
300819
269205
248074
233183
234507
254176
286968
299589
297139
287782
276726
271487
268316
263561
257245
251642
244599
235341
346654
4.84606e+06
3.43403e+06
2.02097e+06
1.25656e+06
899028
719744
616841
546175
505696
474781
449521
423616
398212
383957
366720
356079
342080
333481
317720
300809
284602
269076
263585
259262
254115
247921
242291
234704
224738
337512
5.18632e+06
3.70201e+06
2.21353e+06
1.40321e+06
1.03272e+06
850897
760926
717926
708116
710243
713343
709560
699377
654637
572071
490556
423463
374847
335282
305177
279249
265269
257589
251765
245917
239371
234277
226176
215310
329479
5.56431e+06
4.04275e+06
2.47502e+06
1.60802e+06
1.21851e+06
1.04405e+06
1.00604e+06
1.04068e+06
1.10738e+06
1.16186e+06
1.19291e+06
1.19999e+06
1.15269e+06
1.0319e+06
847632
663391
522119
423756
354688
306757
279235
262522
253664
245021
238610
232028
227689
218691
207279
322056
5.9665e+06
4.46964e+06
2.82761e+06
1.88995e+06
1.4745e+06
1.34074e+06
1.42826e+06
1.58711e+06
1.69636e+06
1.79271e+06
1.86012e+06
1.87598e+06
1.76888e+06
1.53456e+06
1.21329e+06
892541
647516
479723
373073
314729
281455
261572
250113
239124
231954
225942
222177
211514
199951
314825
6.45142e+06
4.99755e+06
3.26567e+06
2.26018e+06
1.82832e+06
1.79966e+06
2.04973e+06
2.24539e+06
2.4218e+06
2.59459e+06
2.71491e+06
2.72644e+06
2.53199e+06
2.15027e+06
1.66079e+06
1.17386e+06
795384
542103
401250
326880
285698
261504
246581
233457
226231
220867
216816
204325
193062
307250
7.22274e+06
5.47042e+06
3.79076e+06
2.73874e+06
2.33357e+06
2.45147e+06
2.71946e+06
2.97352e+06
3.24198e+06
3.50235e+06
3.67379e+06
3.65594e+06
3.35199e+06
2.80412e+06
2.13604e+06
1.4862e+06
963935
623486
437631
342854
291757
262062
242586
228150
221250
216506
211166
196850
185876
299769
7.88524e+06
6.22548e+06
4.41634e+06
3.39003e+06
3.0596e+06
3.24902e+06
3.46229e+06
3.75797e+06
4.0974e+06
4.41938e+06
4.60689e+06
4.51008e+06
4.06816e+06
3.36567e+06
2.56924e+06
1.78669e+06
1.14188e+06
718610
482417
362317
299046
262195
238323
223399
216982
212523
204621
189018
178728
292287
8.60367e+06
6.82851e+06
5.11213e+06
4.32529e+06
4.10702e+06
4.20975e+06
4.33052e+06
4.59078e+06
4.93935e+06
5.28723e+06
5.41947e+06
5.16722e+06
4.58317e+06
3.78704e+06
2.92118e+06
2.06234e+06
1.3381e+06
832091
537059
385032
306762
261077
234018
219110
213187
208261
197322
181120
172076
284758
9.21202e+06
7.98773e+06
6.4153e+06
5.8932e+06
5.67327e+06
5.5037e+06
5.39772e+06
5.5319e+06
5.85074e+06
6.16583e+06
6.14114e+06
5.72071e+06
5.00192e+06
4.13315e+06
3.21337e+06
2.32659e+06
1.55335e+06
967271
602679
410618
313408
259463
230036
215278
209827
202963
189803
173649
166284
277817
9.39214e+06
1.27442e+07
1.03887e+07
9.13972e+06
8.19156e+06
7.41361e+06
6.89022e+06
6.83123e+06
7.03409e+06
7.2145e+06
6.97751e+06
6.3527e+06
5.46858e+06
4.49016e+06
3.50577e+06
2.59334e+06
1.78275e+06
1.1218e+06
678798
437355
319069
258415
226502
211905
206347
196455
182303
166659
160803
270739
394713
440063
439749
315642
213942
177810
161101
150560
143170
138221
135609
135845
140695
154266
184731
247218
361634
540920
768731
855845
857122
823178
813684
897847
1.07175e+06
1.3474e+06
1.6875e+06
1.69702e+06
1.14625e+06
696929
420655
446226
468029
428877
262547
185067
159761
147225
139763
135092
132846
133605
139221
153939
186392
251162
368937
547247
746924
786461
771719
744088
736693
816026
985631
1.26484e+06
1.64871e+06
1.80065e+06
1.38231e+06
914359
427192
438528
450969
440497
342223
206865
160942
144830
136581
132004
129999
131042
136884
151320
181949
241305
345343
499838
681510
733434
720607
694426
686321
753566
909556
1.18096e+06
1.59686e+06
1.9138e+06
1.62256e+06
1.04057e+06
428305
422529
433189
431044
389543
253814
169680
144532
134409
129489
127450
128582
134524
148837
178652
236264
336075
483132
639038
688397
678515
654876
636253
684254
826582
1.0929e+06
1.52536e+06
1.98898e+06
1.8624e+06
1.24546e+06
426249
399507
406247
412370
391179
327468
194897
147820
133625
127610
125319
126252
131952
145578
173251
225778
316135
454403
595059
647942
645893
624904
594089
630226
756281
1.00522e+06
1.43849e+06
2.01091e+06
2.08079e+06
1.51028e+06
422664
376490
378343
388073
378083
359046
245348
159774
135187
126887
123911
124388
129471
141985
167149
214571
296868
426532
558402
615009
622564
602679
565797
589893
689484
913821
1.34668e+06
1.98967e+06
2.2642e+06
1.83374e+06
419998
358407
355314
362758
359007
356831
315156
190215
141401
127997
123392
123117
127303
138264
160162
201649
274645
396525
530970
597779
610032
587324
550727
560339
636228
826806
1.25115e+06
1.94493e+06
2.42387e+06
2.12888e+06
416996
343261
338857
342035
340252
342692
333660
249796
157849
132128
124508
122956
125973
135177
153645
188199
250905
361778
500071
588132
607816
578820
540109
543443
603185
762606
1.15886e+06
1.89153e+06
2.56489e+06
2.44635e+06
411982
329458
327755
326712
325281
327551
327632
305479
194665
142081
128202
124506
126028
133237
148150
175719
226997
321214
463392
568445
600345
565630
526092
531882
585799
722957
1.08098e+06
1.82919e+06
2.67625e+06
2.76299e+06
401955
313954
315608
315279
312388
315750
315458
315047
260425
165793
136078
128439
128018
133132
144655
166136
205369
277844
409672
523296
569117
543565
504688
512408
574566
708538
1.03707e+06
1.76977e+06
2.756e+06
3.10648e+06
389198
295660
302302
304649
301338
305517
304142
307057
297786
216396
153672
136445
132820
135744
144517
160882
189600
242325
345422
450520
506669
502094
476763
492194
561037
703754
1.02437e+06
1.74357e+06
2.8239e+06
3.4603e+06
376760
277043
286687
292416
290511
295826
294115
296550
299950
279754
194015
152864
142159
142123
148392
161075
181760
220596
292449
373081
432924
450680
448588
478277
556571
709204
1.03478e+06
1.74987e+06
2.91429e+06
3.7935e+06
366452
261044
270881
278667
279103
285525
284853
286818
292332
294318
263838
191329
161822
155257
158527
167697
184049
214019
264359
319636
374841
408245
430223
474616
564441
729690
1.06521e+06
1.78851e+06
3.03001e+06
4.10596e+06
356990
247599
257042
265467
267863
274587
275861
278400
284641
292851
291936
264229
209162
186324
182782
187928
203170
227542
264382
302912
348930
388517
427604
490665
593487
770451
1.11645e+06
1.85751e+06
3.17637e+06
4.40561e+06
347777
236070
245404
253979
257886
264125
267100
270605
277977
289730
299966
303015
291541
263907
246546
245840
260609
282751
312225
343820
379995
419998
467607
542293
651043
832733
1.19199e+06
1.96106e+06
3.35815e+06
4.70386e+06
339226
226101
235929
244065
249098
255080
258812
263497
270408
287477
305221
324407
342407
357499
381267
399892
419686
434130
453821
476255
499373
527122
565638
637273
743281
929323
1.3006e+06
2.11223e+06
3.58021e+06
5.02143e+06
331721
217140
227913
235921
241097
247417
251990
257870
265474
282806
311404
345492
390136
449041
533070
627387
715046
770792
778387
771254
760020
752065
753793
791010
880574
1.06826e+06
1.4531e+06
2.31515e+06
3.86275e+06
5.37825e+06
324560
209481
220761
229557
234120
240383
246017
254494
263233
281709
314079
369047
447179
562441
731481
939196
1.13465e+06
1.26182e+06
1.30561e+06
1.29016e+06
1.24667e+06
1.18726e+06
1.11059e+06
1.05812e+06
1.08472e+06
1.2614e+06
1.66598e+06
2.58592e+06
4.22174e+06
5.77716e+06
317296
202341
213888
224187
228357
233909
240583
251360
263072
284343
322838
390341
511754
706376
993142
1.35475e+06
1.69665e+06
1.93636e+06
2.03813e+06
2.01069e+06
1.92291e+06
1.80837e+06
1.69314e+06
1.52655e+06
1.40696e+06
1.53036e+06
1.9603e+06
2.95038e+06
4.66964e+06
6.20268e+06
309978
195495
206914
219460
224016
228553
235568
248558
263910
289895
336759
421545
584405
874777
1.30927e+06
1.85566e+06
2.38027e+06
2.77401e+06
2.96159e+06
2.93408e+06
2.78464e+06
2.57844e+06
2.38415e+06
2.18316e+06
1.91138e+06
1.91063e+06
2.35035e+06
3.40556e+06
5.2213e+06
6.71609e+06
302992
188631
199633
214128
220500
224402
230730
245616
265536
297412
354973
461303
675936
1.06424e+06
1.65092e+06
2.36504e+06
3.08401e+06
3.65514e+06
3.9594e+06
3.96432e+06
3.75979e+06
3.45279e+06
3.15114e+06
2.8832e+06
2.62031e+06
2.46086e+06
2.85798e+06
3.95215e+06
5.71498e+06
7.54339e+06
296045
181834
192014
207678
217194
221028
226439
242161
267129
306201
376657
510495
779624
1.25616e+06
1.96498e+06
2.80786e+06
3.65159e+06
4.38468e+06
4.84437e+06
4.94169e+06
4.73252e+06
4.35994e+06
3.97726e+06
3.65787e+06
3.43997e+06
3.24576e+06
3.55553e+06
4.60633e+06
6.48831e+06
8.23156e+06
288615
175144
184245
200398
212893
217990
222716
238555
267698
315624
401489
569219
901023
1.46032e+06
2.23791e+06
3.1444e+06
4.05341e+06
4.88204e+06
5.49061e+06
5.7538e+06
5.62601e+06
5.23594e+06
4.84078e+06
4.55821e+06
4.44177e+06
4.36633e+06
4.55985e+06
5.34595e+06
7.11493e+06
8.98193e+06
281525
169007
176642
192875
206864
214979
219545
235454
267380
324629
429100
638375
1.04052e+06
1.67512e+06
2.48639e+06
3.40967e+06
4.37094e+06
5.28194e+06
6.037e+06
6.47825e+06
6.52073e+06
6.17704e+06
5.81286e+06
5.65272e+06
5.77331e+06
5.99482e+06
6.22618e+06
6.71768e+06
8.33673e+06
9.59681e+06
274169
163240
169359
185378
200064
211340
216787
232991
267328
332265
458463
718619
1.19768e+06
1.89939e+06
2.73682e+06
3.67989e+06
4.70866e+06
5.74009e+06
6.67178e+06
7.32596e+06
7.5822e+06
7.38992e+06
7.14742e+06
7.18103e+06
7.71652e+06
8.55249e+06
9.61678e+06
1.07498e+07
1.29943e+07
9.78927e+06
3.33623e+06
2.62779e+06
2.10282e+06
1.7469e+06
1.47801e+06
1.274e+06
1.11634e+06
999908
916906
861539
826466
808170
805711
820456
852091
902391
975754
1.07588e+06
1.20624e+06
1.36596e+06
1.55585e+06
1.77105e+06
2.00755e+06
2.26241e+06
2.51435e+06
2.78838e+06
3.10826e+06
3.42406e+06
3.75211e+06
4.08682e+06
4.42229e+06
4.73981e+06
5.02477e+06
5.26936e+06
5.46783e+06
5.61231e+06
5.69283e+06
5.69847e+06
5.62002e+06
5.44773e+06
5.18527e+06
4.84274e+06
4.44165e+06
4.0115e+06
3.57226e+06
3.15091e+06
2.76236e+06
2.40897e+06
2.08923e+06
1.80566e+06
1.56082e+06
1.35506e+06
1.1838e+06
1.0375e+06
910739
803344
709835
629458
560982
502110
451825
408272
371613
340796
314408
291502
271792
255340
241873
230924
222145
215117
209484
204966
201288
198145
195282
192501
189703
186885
184117
181474
179071
177029
175428
174273
173483
173004
172767
172672
172704
172909
173342
174035
174965
176063
177209
178340
179307
180235
180958
181791
182542
183678
184848
186167
187619
189304
191221
193557
196369
200723
204883
207403
209621
213229
219155
228150
233690
236764
240057
245467
252535
259816
266764
8.18927e+06
7.09279e+06
5.94743e+06
5.0391e+06
4.30089e+06
3.70567e+06
3.22184e+06
2.84033e+06
2.53776e+06
2.30567e+06
2.13039e+06
2.00316e+06
1.91674e+06
1.87916e+06
1.88812e+06
1.94358e+06
2.05557e+06
2.22177e+06
2.44985e+06
2.73416e+06
3.07279e+06
3.45387e+06
3.86771e+06
4.28661e+06
4.69358e+06
5.08531e+06
5.47333e+06
5.85963e+06
6.23144e+06
6.59573e+06
6.96243e+06
7.32978e+06
7.69111e+06
8.0383e+06
8.36177e+06
8.64809e+06
8.88176e+06
9.04665e+06
9.12507e+06
9.10025e+06
8.96254e+06
8.70491e+06
8.33138e+06
7.86309e+06
7.31895e+06
6.71024e+06
6.06499e+06
5.42285e+06
4.80228e+06
4.21118e+06
3.65905e+06
3.15609e+06
2.70913e+06
2.31634e+06
1.97488e+06
1.68275e+06
1.43227e+06