/*--------------------------------*- C++ -*----------------------------------*\
| =========                 |                                                 |
| \\      /  F ield         | OpenFOAM: The Open Source CFD Toolbox           |
|  \\    /   O peration     | Version:  2112                                  |
|   \\  /    A nd           | Website:  www.openfoam.com                      |
|    \\/     M anipulation  |                                                 |
\*---------------------------------------------------------------------------*/
FoamFile
{
    version     2.0;
    format      ascii;
    arch        "LSB;label=32;scalar=64";
    class       volScalarField;
    location    "0.00458";
    object      nut;
}
// * * * * * * * * * * * * * * * * * * * * * * * * * * * * * * * * * * * * * //

dimensions      [0 2 -1 0 0 0 0];

internalField   nonuniform List<scalar> 
13875
(
0.0511671
0.0366271
0.0343733
0.0343285
0.0342611
0.0343246
0.0343215
0.0343166
0.0342871
0.0342758
0.0342857
0.0342947
0.0343208
0.0343426
0.0343344
0.0342855
0.0342469
0.0342972
0.0343123
0.034347
0.034279
0.034331
0.0343849
0.0365733
0.0514229
0.0532622
0.0341216
0.0322295
0.0321043
0.0320204
0.0320606
0.0320508
0.0320504
0.0320191
0.0320267
0.0320427
0.0320493
0.032055
0.0320755
0.032065
0.0320383
0.0319782
0.0320419
0.0320546
0.0320889
0.0320353
0.0320964
0.0322297
0.0340522
0.0536374
0.0564576
0.0335635
0.0318093
0.0315873
0.0315125
0.0315484
0.0315329
0.0315276
0.0314476
0.0314433
0.0314607
0.0314664
0.0315348
0.0315613
0.0315407
0.0314629
0.0313879
0.0314713
0.0315384
0.0315848
0.031532
0.0315711
0.0317941
0.0334906
0.0565992
0.0590721
0.0332344
0.0314955
0.0312704
0.0312066
0.0312363
0.0312167
0.0312138
0.0311292
0.0311002
0.0311124
0.0311249
0.0312185
0.0312455
0.0312244
0.0311219
0.0310604
0.0311364
0.0312214
0.031271
0.0312241
0.0312535
0.0314837
0.033167
0.0591493
0.0611279
0.0330055
0.0312519
0.0309959
0.0309303
0.0309537
0.0309308
0.0309303
0.0308496
0.0308123
0.0308209
0.0308366
0.0309322
0.0309602
0.0309379
0.0308324
0.0307755
0.0308474
0.0309359
0.0309888
0.0309469
0.0309806
0.0312289
0.0329196
0.0612655
0.0628207
0.0328495
0.031094
0.0307635
0.0306978
0.0307097
0.0306786
0.0306764
0.0305983
0.0305512
0.0305563
0.0305786
0.0306751
0.0307041
0.0306803
0.0305695
0.0305194
0.0305867
0.030681
0.0307462
0.0307152
0.0307528
0.0310566
0.0328246
0.0629783
0.0648285
0.0330736
0.0311082
0.0306248
0.030516
0.0305055
0.0304609
0.0304548
0.0303786
0.0303186
0.030319
0.0303485
0.0304492
0.0304788
0.0304508
0.0303348
0.030296
0.0303604
0.0304633
0.0305413
0.0305356
0.0306259
0.0311126
0.0330733
0.0648702
0.0670967
0.0339378
0.0314296
0.0306451
0.0304396
0.0303725
0.030298
0.0302758
0.0302002
0.0301269
0.0301147
0.0301502
0.03026
0.0302934
0.0302614
0.0301366
0.0301111
0.0301751
0.0302908
0.0304028
0.0304514
0.0306321
0.0313897
0.0338931
0.0673568
0.0736445
0.0362935
0.0320476
0.0308491
0.030449
0.0303179
0.0302052
0.0301578
0.0300778
0.0299906
0.0299657
0.0300064
0.030128
0.0301667
0.0301315
0.0299991
0.0299832
0.0300467
0.030178
0.0303403
0.0304642
0.0308095
0.0319412
0.0360078
0.0741952
0.082878
0.0384743
0.0327407
0.0311712
0.0306289
0.0303752
0.0302194
0.0301381
0.030047
0.0299557
0.0299255
0.0299658
0.030098
0.0301427
0.0301075
0.0299832
0.0299645
0.0300259
0.0301615
0.0303719
0.0306255
0.0311355
0.0326364
0.0381074
0.0834914
0.0907001
0.0441587
0.0346931
0.0321001
0.0310334
0.0306358
0.030414
0.030287
0.0301784
0.0300898
0.0300595
0.0300921
0.0302314
0.0302814
0.0302544
0.0301548
0.0301273
0.0301845
0.0303297
0.0305782
0.0310071
0.0320315
0.0344738
0.0433422
0.0893834
0.0949308
0.0548117
0.040687
0.0337362
0.032294
0.0314101
0.0309797
0.0307752
0.0306348
0.0305478
0.0305194
0.0305418
0.0306734
0.0307311
0.0307192
0.0306557
0.0306334
0.0307039
0.0308929
0.0313432
0.0321683
0.0334783
0.0401372
0.0536119
0.0942209
0.0866014
0.0678421
0.0534942
0.0426303
0.035292
0.0330109
0.0323764
0.0321206
0.0319365
0.0318381
0.0318111
0.0318297
0.031936
0.0319992
0.0320094
0.0319863
0.032
0.0321265
0.0323736
0.0329978
0.0356923
0.0424767
0.0522306
0.0673199
0.0866029
0.0795726
0.0655844
0.0593642
0.0693527
0.0449754
0.0400104
0.0368996
0.0356232
0.0351604
0.034977
0.0349139
0.0349285
0.0350015
0.0350725
0.0351089
0.0351483
0.0352781
0.0357243
0.0370729
0.040836
0.0465804
0.0686852
0.0585399
0.0655794
0.0817169
0.0755644
0.0646879
0.058062
0.0641477
0.0570701
0.0561615
0.0520944
0.0474843
0.0469524
0.0467464
0.0466422
0.0466122
0.0467055
0.046795
0.046857
0.0469076
0.047039
0.0475593
0.0523813
0.0577713
0.0569101
0.0642859
0.0574877
0.0643159
0.0750892
0.0680667
0.0632596
0.0580784
0.0640629
0.062918
0.0667177
0.0638383
0.0636945
0.0676715
0.0701484
0.0704234
0.0702713
0.0704079
0.0707593
0.0706541
0.0702827
0.0675036
0.0633793
0.0630746
0.0677269
0.0628786
0.0645493
0.057489
0.0625183
0.067459
0.0648646
0.06294
0.0601134
0.0656234
0.0652904
0.068728
0.0684984
0.06889
0.0663468
0.0663239
0.0666203
0.0666285
0.0668202
0.0670696
0.0669934
0.0666603
0.0667365
0.0684621
0.0669218
0.0692405
0.0657646
0.0666459
0.0595111
0.0617851
0.0647612
0.060437
0.0634605
0.0650453
0.0657154
0.0636658
0.0686211
0.0697548
0.071308
0.0679661
0.0650644
0.0640694
0.0637332
0.063939
0.0642767
0.0647788
0.0658279
0.0683459
0.0702319
0.0676517
0.0680323
0.0641151
0.0672708
0.0654207
0.0627185
0.0600508
0.0538218
0.0650568
0.0680031
0.0662491
0.0629283
0.0648905
0.067138
0.0706276
0.0698138
0.0657581
0.0628755
0.0615621
0.0615158
0.061956
0.0631211
0.0656047
0.0693651
0.0695777
0.0656834
0.064598
0.0633265
0.0672796
0.0683274
0.0653847
0.0544296
0.0511324
0.0686707
0.0681469
0.0650032
0.06162
0.0620915
0.0642223
0.0680434
0.0690666
0.0656618
0.0617922
0.0596218
0.0592987
0.0600637
0.062001
0.0652456
0.0681268
0.0668208
0.0632698
0.0621904
0.0625162
0.0660653
0.0681988
0.068479
0.0503819
0.062269
0.0665681
0.0644821
0.0621275
0.0594408
0.0596476
0.0615223
0.0654103
0.0673754
0.064626
0.0603596
0.0575981
0.0570795
0.0581887
0.0607323
0.0642404
0.066227
0.0641042
0.0608631
0.0600527
0.0605915
0.0632215
0.0647177
0.0664167
0.0606445
0.0818321
0.0742173
0.0619524
0.0594999
0.0572861
0.0575703
0.0591155
0.0629879
0.0654765
0.063131
0.0586743
0.0555541
0.054841
0.056155
0.0590571
0.0627273
0.0642575
0.0616872
0.058569
0.0580351
0.0585096
0.0604823
0.0623056
0.0753286
0.0821582
0.0952556
0.0803943
0.0601505
0.0569011
0.0552428
0.0555039
0.0568831
0.0608396
0.0635224
0.0613477
0.0567949
0.0534815
0.0526138
0.0539565
0.0570363
0.0608972
0.0623518
0.0595739
0.0562641
0.0557966
0.0563284
0.057766
0.0604211
0.0815375
0.0970598
0.104969
0.081159
0.0583035
0.0547956
0.0532694
0.0533188
0.0548453
0.0589075
0.0616178
0.0592435
0.0546139
0.0513347
0.0504671
0.0518325
0.0549348
0.0588998
0.0605109
0.0576417
0.0541384
0.0535829
0.0542778
0.0557598
0.0589274
0.0824349
0.105664
0.111267
0.0824903
0.0570483
0.053333
0.0515364
0.051475
0.0531598
0.057085
0.0596233
0.057164
0.052515
0.0493023
0.0484638
0.0497898
0.0528625
0.0569225
0.0586166
0.0558638
0.052396
0.0516082
0.0523924
0.0542772
0.0578609
0.0842823
0.112418
0.118392
0.0839492
0.0563865
0.0522309
0.050121
0.0500211
0.0517364
0.0553629
0.0575839
0.0550667
0.0505411
0.047428
0.0466075
0.0478657
0.0508116
0.0547706
0.0565646
0.0541785
0.0509382
0.0499622
0.0507231
0.0530307
0.0570023
0.0839164
0.120494
0.126048
0.0835017
0.0558733
0.0512224
0.049023
0.0488358
0.0505148
0.0537234
0.0554403
0.0528831
0.0485777
0.0456746
0.0449175
0.0461225
0.0489576
0.0528034
0.0546632
0.0526632
0.0496742
0.048641
0.0494723
0.0519855
0.0565776
0.0844958
0.127237
0.132414
0.0840415
0.0556632
0.0503628
0.048267
0.0479478
0.0494253
0.0521983
0.0534445
0.0508705
0.0468233
0.0441039
0.0433743
0.0445148
0.0471743
0.050796
0.0527214
0.051212
0.0485941
0.0476234
0.0485338
0.0509673
0.0562828
0.0852175
0.134711
0.139607
0.085383
0.055526
0.0496441
0.0476219
0.0472674
0.0484827
0.050794
0.0515764
0.0490259
0.0452216
0.0426688
0.0419663
0.0430267
0.0454717
0.0488563
0.050848
0.0498654
0.0476554
0.0468167
0.0477029
0.0500697
0.0560335
0.0855708
0.141394
0.146225
0.0865707
0.055538
0.0489683
0.0469898
0.0467049
0.0476681
0.0494146
0.0496465
0.0471148
0.0436552
0.0413398
0.0406881
0.0417193
0.0440156
0.0471687
0.0491645
0.048628
0.0468562
0.0461966
0.0469874
0.0493882
0.0562153
0.0875411
0.146688
0.149464
0.087424
0.0558954
0.0485678
0.0464419
0.0461347
0.0468976
0.0481875
0.0479857
0.0455004
0.0422905
0.0401408
0.0395198
0.0404943
0.0425907
0.0455138
0.0475421
0.0474802
0.0461395
0.045606
0.0463513
0.0488977
0.0564688
0.0888211
0.152047
0.153064
0.0887829
0.0564495
0.048528
0.0459326
0.0455794
0.0461802
0.0470346
0.0464792
0.0440241
0.0410668
0.0390639
0.0384618
0.0393846
0.0413129
0.0439992
0.0460306
0.0463773
0.0454685
0.045054
0.0457753
0.0487482
0.0570664
0.0893397
0.155338
0.157035
0.088942
0.0572919
0.0486708
0.0455404
0.0450228
0.0454509
0.0458959
0.0450254
0.0426397
0.0399009
0.0380611
0.0374941
0.0383909
0.0401815
0.0427098
0.0447399
0.0453611
0.0447977
0.0444963
0.045333
0.0488718
0.057953
0.0902358
0.158483
0.1596
0.0894899
0.0583186
0.0491833
0.0453293
0.0445368
0.0447298
0.0448631
0.0437517
0.0414224
0.0388973
0.037174
0.0366204
0.0374732
0.0391356
0.0414651
0.0434639
0.0443737
0.0441465
0.044038
0.0451133
0.049301
0.0589735
0.0903124
0.161768
0.162274
0.0907752
0.0587101
0.0498793
0.045387
0.0440829
0.0440009
0.0438882
0.0426196
0.0403664
0.0379828
0.0363622
0.0358237
0.0366363
0.0381815
0.040388
0.0423477
0.0434309
0.0434549
0.0436079
0.0452008
0.0500528
0.0595962
0.0905399
0.163989
0.165084
0.0907512
0.0585939
0.0506493
0.0457072
0.0437454
0.0433264
0.0429168
0.0415126
0.0393299
0.0371277
0.0356212
0.0351045
0.0359006
0.0373647
0.039429
0.0413436
0.0425689
0.0428432
0.0433109
0.0455574
0.0510774
0.0597743
0.091245
0.166372
0.166701
0.0913197
0.0585733
0.0519894
0.0462578
0.0435895
0.0427218
0.0420304
0.0405464
0.0384655
0.036374
0.0349452
0.034443
0.0352089
0.0365797
0.0385418
0.0403874
0.0417065
0.0422946
0.0431829
0.046135
0.0525493
0.0594916
0.0914687
0.168446
0.168653
0.0918613
0.0585613
0.0530106
0.0471924
0.043642
0.0422531
0.0412502
0.0396678
0.0376448
0.0356883
0.0343357
0.0338463
0.0345877
0.0358758
0.037701
0.0395072
0.0409527
0.041863
0.0432996
0.0472404
0.0536606
0.0592018
0.0919759
0.169684
0.170613
0.0918696
0.057913
0.05303
0.0481952
0.0438802
0.0419408
0.0405365
0.0388394
0.0368857
0.0350328
0.0337585
0.0332933
0.0340198
0.0352389
0.036994
0.0387502
0.040293
0.0415955
0.0436079
0.0484926
0.0539106
0.0587081
0.0930609
0.171203
0.171733
0.0926148
0.0571512
0.0529768
0.0499062
0.0444358
0.0418583
0.0400027
0.0381419
0.0362112
0.0344559
0.0332476
0.0327884
0.0334891
0.0346377
0.036298
0.0380522
0.0397821
0.0415122
0.0442736
0.0503531
0.0536795
0.0578084
0.0934763
0.172849
0.172946
0.093951
0.0567152
0.0526588
0.0510479
0.0453088
0.0418909
0.0396961
0.0375864
0.0356372
0.0339305
0.0327691
0.0323215
0.0329908
0.0340873
0.0357011
0.0374873
0.0394727
0.0415807
0.0454245
0.0516452
0.0531611
0.0570999
0.0944245
0.173827
0.174137
0.0948036
0.0561152
0.0519855
0.0511128
0.0466121
0.042097
0.0395165
0.0371638
0.0351222
0.0334425
0.0323325
0.0318942
0.0325544
0.0336105
0.0352176
0.0371027
0.0393501
0.041985
0.0472604
0.0515571
0.0525184
0.057083
0.0962412
0.17494
0.174643
0.0960836
0.0559162
0.0512775
0.0507489
0.0483412
0.0427872
0.0394808
0.0369663
0.0347493
0.033033
0.0319319
0.0314962
0.0321416
0.0331801
0.034815
0.0369022
0.0393186
0.0428476
0.0489068
0.0510526
0.051774
0.0566624
0.0970576
0.175911
0.175241
0.0979323
0.0564677
0.0507677
0.0501605
0.0491262
0.0441704
0.0396606
0.0368547
0.0345312
0.0327298
0.0315921
0.0311452
0.0317891
0.0328608
0.0345826
0.0368013
0.0395793
0.0445844
0.0494563
0.0502739
0.0511823
0.0567125
0.0981054
0.176512
0.176089
0.0987561
0.0564527
0.0502566
0.0494299
0.0488163
0.0462811
0.0402721
0.0368573
0.0344642
0.0325776
0.0313429
0.030866
0.0315381
0.0326914
0.034525
0.0368794
0.0405521
0.0466219
0.0490386
0.0494447
0.050775
0.0574128
0.0995639
0.177165
0.176406
0.0999612
0.0572349
0.0499896
0.048736
0.0483384
0.04753
0.0419327
0.0371106
0.0344517
0.0325456
0.0312354
0.0306825
0.0314257
0.0326344
0.0345092
0.0372211
0.042289
0.0473705
0.0484343
0.0487597
0.0504159
0.057763
0.100297
0.177938
0.176648
0.101425
0.0583397
0.0499614
0.0482168
0.0477289
0.0472198
0.044328
0.0381374
0.0345669
0.0325353
0.0312065
0.030601
0.0313948
0.0326203
0.0346277
0.0383983
0.0446264
0.0470853
0.0477627
0.0482615
0.0502881
0.0583801
0.10121
0.178164
0.176256
0.10192
0.0588422
0.0499297
0.0477847
0.0470808
0.0467799
0.0456319
0.0402496
0.0350011
0.0325773
0.0312101
0.0305948
0.0313979
0.0326985
0.035276
0.0409152
0.0456991
0.0467038
0.047194
0.0479132
0.0503944
0.0594425
0.102411
0.177477
0.174347
0.10201
0.0594441
0.0499931
0.04748
0.0465572
0.0462086
0.0454203
0.0426568
0.0363933
0.0328293
0.031248
0.0306212
0.0314291
0.0329764
0.0368699
0.0430561
0.0454755
0.0461787
0.0467231
0.0476634
0.0504405
0.0599484
0.10243
0.175635
0.168135
0.100594
0.0599757
0.0500508
0.0472659
0.0461587
0.0456296
0.0450309
0.0436817
0.0389893
0.0337297
0.031441
0.0307552
0.0316067
0.0339729
0.0394391
0.0436106
0.0450688
0.0456501
0.0463516
0.0474805
0.0504343
0.0602703
0.100778
0.169461
0.0791906
0.222004
0.301874
0.330933
0.340411
0.344865
0.349285
0.354094
0.359581
0.365487
0.371934
0.380044
0.402619
0.482629
0.573237
0.595607
0.605243
0.612768
0.617323
0.617164
0.612453
0.60628
0.600547
0.594432
0.584894
0.567219
0.534264
0.472127
0.356807
0.139699
0.0738284
0.23036
0.308435
0.33482
0.34338
0.347864
0.352682
0.358097
0.364279
0.370868
0.379207
0.400664
0.484183
0.596296
0.615164
0.617647
0.620864
0.625147
0.62621
0.623285
0.616967
0.609598
0.602706
0.595225
0.583868
0.563814
0.527891
0.462694
0.346936
0.138711
0.0773055
0.24506
0.315589
0.338209
0.345892
0.350728
0.356331
0.362629
0.369931
0.37906
0.400517
0.476434
0.598005
0.623415
0.625083
0.625918
0.628389
0.630702
0.628937
0.625221
0.618587
0.610625
0.602942
0.594155
0.580852
0.558176
0.518949
0.450186
0.333649
0.137453
0.0796758
0.25391
0.319177
0.340307
0.348099
0.353983
0.360835
0.368976
0.380039
0.404727
0.481044
0.596174
0.626605
0.6312
0.631267
0.631271
0.63186
0.630903
0.627246
0.622965
0.616427
0.608341
0.600019
0.589941
0.574749
0.549578
0.507463
0.435904
0.319428
0.135987
0.080001
0.256729
0.321356
0.34243
0.35127
0.3593
0.370187
0.385931
0.415217
0.495037
0.590958
0.621484
0.630398
0.632813
0.632204
0.63075
0.628585
0.624952
0.620349
0.616241
0.610523
0.601235
0.592279
0.581254
0.564664
0.537736
0.493472
0.420463
0.305536
0.134541
0.0803968
0.259941
0.324182
0.345932
0.357999
0.37477
0.401634
0.440076
0.510265
0.576878
0.603903
0.617656
0.624457
0.626283
0.624761
0.621322
0.617768
0.613944
0.609356
0.605772
0.601425
0.591295
0.581599
0.569556
0.551636
0.523291
0.47766
0.404639
0.293336
0.133116
0.081074
0.263992
0.328492
0.354303
0.381217
0.423622
0.47951
0.521424
0.552056
0.572724
0.588723
0.601749
0.608163
0.609398
0.606646
0.604041
0.601654
0.598697
0.595045
0.592424
0.590016
0.580178
0.569602
0.556641
0.537607
0.508039
0.461705
0.38922
0.281446
0.131698
0.0822307
0.26987
0.33861
0.384138
0.446642
0.500008
0.512604
0.521137
0.533254
0.546886
0.56197
0.575099
0.581245
0.582121
0.581383
0.581471
0.581036
0.579934
0.577803
0.576518
0.575904
0.567313
0.555924
0.542412
0.522602
0.492178
0.445373
0.373849
0.270212
0.130222
0.0851303
0.28398
0.372457
0.460837
0.505807
0.499023
0.490326
0.489876
0.497764
0.510177
0.525404
0.538929
0.545298
0.549193
0.551745
0.554528
0.556647
0.557854
0.55754
0.557869
0.558811
0.552003
0.540144
0.526354
0.5061
0.475196
0.42824
0.358149
0.259054
0.128732
0.100643
0.33959
0.46241
0.512419
0.486161
0.462714
0.44771
0.444555
0.451779
0.464149
0.480553
0.495673
0.505753
0.51354
0.519213
0.524763
0.529541
0.533116
0.534745
0.536724
0.538926
0.534213
0.522351
0.508502
0.488079
0.45702
0.4104
0.342314
0.248248
0.127196
0.123691
0.423796
0.516969
0.479417
0.438728
0.412047
0.395675
0.392019
0.399109
0.413054
0.432118
0.450939
0.465472
0.477052
0.485848
0.493854
0.500962
0.506754
0.510269
0.513706
0.516846
0.514174
0.502787
0.489039
0.468697
0.43783
0.391987
0.326372
0.237626
0.12557
0.137834
0.4265
0.472074
0.425299
0.384355
0.35925
0.344837
0.34158
0.348171
0.364011
0.384897
0.407019
0.426538
0.442083
0.453314
0.463204
0.472049
0.479734
0.484997
0.489608
0.493433
0.492416
0.48177
0.468281
0.448215
0.417812
0.373165
0.3104
0.227254
0.123796
0.150292
0.404658
0.413421
0.375403
0.340385
0.320196
0.307873
0.302948
0.307695
0.321684
0.342338
0.366459
0.390717
0.409943
0.422831
0.433765
0.443844
0.45295
0.45969
0.465327
0.469535
0.469668
0.45981
0.446672
0.427007
0.397264
0.35421
0.294656
0.217296
0.121892
0.161368
0.374135
0.368
0.347212
0.32598
0.309633
0.295644
0.28479
0.282698
0.290858
0.308115
0.331408
0.358834
0.381227
0.395155
0.40631
0.41724
0.427126
0.435203
0.441609
0.44588
0.446594
0.437489
0.424763
0.405586
0.376706
0.335668
0.2796
0.207961
0.119953
0.171483
0.344793
0.350649
0.354213
0.352691
0.337298
0.314472
0.290722
0.276349
0.274068
0.284187
0.303241
0.33102
0.357444
0.370828
0.38153
0.392908
0.403119
0.412063
0.41889
0.423062
0.42383
0.415312
0.403057
0.384463
0.35671
0.317946
0.265523
0.199266
0.118042
0.179669
0.333264
0.368893
0.404747
0.421958
0.404873
0.366587
0.322536
0.289531
0.27148
0.271133
0.28283
0.308411
0.336744
0.349986
0.360086
0.371099
0.381356
0.390594
0.397595
0.401516
0.40184
0.393769
0.381954
0.364028
0.337592
0.301174
0.252376
0.1912
0.11616
0.189156
0.345589
0.431942
0.505397
0.539815
0.514317
0.452393
0.379056
0.321011
0.281867
0.267793
0.270017
0.291333
0.31921
0.3327
0.341817
0.351885
0.362018
0.371173
0.378058
0.381494
0.380914
0.373289
0.361833
0.344552
0.319492
0.285382
0.240093
0.183769
0.114301
0.200907
0.387799
0.549492
0.653405
0.673939
0.62009
0.545168
0.455357
0.367368
0.302335
0.272283
0.26516
0.279653
0.305309
0.318808
0.326889
0.335602
0.345252
0.354006
0.360363
0.363054
0.361389
0.354043
0.34294
0.326233
0.302559
0.270667
0.228719
0.176919
0.112475
0.216699
0.471792
0.707427
0.768062
0.743464
0.668865
0.591336
0.510755
0.416148
0.328296
0.281956
0.266637
0.274227
0.295232
0.307714
0.314854
0.322208
0.330939
0.339095
0.344517
0.346187
0.343422
0.3362
0.32535
0.309198
0.286924
0.257129
0.218293
0.170574
0.110704
0.237722
0.594261
0.82057
0.824225
0.769291
0.683086
0.60214
0.539062
0.451219
0.357162
0.295308
0.272827
0.273723
0.288479
0.299654
0.305907
0.311728
0.319174
0.326055
0.330214
0.330802
0.327166
0.319799
0.309071
0.29353
0.2726
0.244761
0.20878
0.164762
0.109013
0.259336
0.714718
0.895425
0.866875
0.787318
0.687392
0.601717
0.546209
0.474213
0.383259
0.311857
0.282572
0.27662
0.285382
0.294522
0.299322
0.303303
0.30918
0.314462
0.317473
0.316693
0.312333
0.304885
0.294176
0.27928
0.25955
0.233487
0.200073
0.159515
0.107413
0.284322
0.811356
0.954785
0.913487
0.820043
0.706308
0.605153
0.543975
0.485909
0.403336
0.328037
0.292739
0.280894
0.283702
0.292783
0.295111
0.296606
0.300568
0.304111
0.305824
0.303977
0.299205
0.291524
0.280732
0.266383
0.247682
0.223227
0.192065
0.154776
0.105886
0.339766
0.877651
0.983855
0.969876
0.876245
0.740291
0.619421
0.546594
0.49496
0.420804
0.345741
0.304367
0.287301
0.284481
0.294163
0.292626
0.291037
0.292865
0.294667
0.295558
0.292661
0.287282
0.279503
0.268598
0.254666
0.236893
0.213934
0.184732
0.150383
0.104416
0.353731
0.918851
1.01936
1.04951
0.959551
0.786395
0.643443
0.557789
0.504105
0.438925
0.36361
0.317055
0.29582
0.289347
0.300711
0.292382
0.286209
0.285795
0.286279
0.286221
0.282134
0.27627
0.268385
0.257765
0.244227
0.227329
0.205648
0.178151
0.146226
0.103015
0.368896
0.868796
1.06637
1.15385
1.06856
0.848543
0.680572
0.577408
0.515406
0.453303
0.37777
0.328075
0.304909
0.299867
0.307044
0.29639
0.283749
0.28037
0.279251
0.277323
0.272328
0.266643
0.258404
0.248182
0.234989
0.218901
0.198331
0.172314
0.142427
0.101696
0.139767
0.357379
0.472678
0.534781
0.567806
0.585561
0.595179
0.601406
0.607186
0.613292
0.617776
0.618022
0.613392
0.605512
0.596099
0.574674
0.487311
0.404607
0.380744
0.372385
0.365811
0.35983
0.354304
0.349566
0.345094
0.340649
0.331149
0.301914
0.221804
0.0792052
0.138803
0.347575
0.463357
0.528549
0.56454
0.584687
0.596111
0.603692
0.610557
0.617669
0.623625
0.626655
0.625728
0.621242
0.617863
0.615201
0.597744
0.491088
0.403099
0.380021
0.371279
0.364572
0.358361
0.352921
0.34816
0.343574
0.334895
0.308363
0.230094
0.0739108
0.137569
0.334365
0.450976
0.519763
0.559076
0.581817
0.595165
0.603991
0.611587
0.619129
0.625226
0.628902
0.630978
0.628731
0.626002
0.624883
0.623193
0.600304
0.485265
0.40365
0.380052
0.370452
0.363044
0.356639
0.351066
0.346124
0.338279
0.315524
0.244853
0.0773632
0.136138
0.320217
0.436847
0.508446
0.550651
0.575843
0.591082
0.601184
0.609312
0.616713
0.62254
0.626823
0.630483
0.631701
0.631056
0.630787
0.630515
0.626231
0.598812
0.491811
0.409164
0.381916
0.370005
0.361428
0.354396
0.348413
0.340492
0.319157
0.253673
0.0797526
0.134721
0.306369
0.421542
0.4946
0.538945
0.565881
0.582515
0.593533
0.602262
0.610589
0.615524
0.619477
0.623957
0.627688
0.630053
0.63134
0.631663
0.629046
0.620223
0.592408
0.505872
0.422149
0.390252
0.372489
0.360348
0.351747
0.34273
0.321392
0.256638
0.0800315
0.13331
0.294198
0.405786
0.478902
0.524619
0.552973
0.570917
0.582914
0.592392
0.601276
0.604959
0.608248
0.612552
0.616365
0.620012
0.62335
0.624568
0.622342
0.614988
0.600857
0.575495
0.518578
0.453
0.409614
0.379132
0.359553
0.346448
0.324339
0.25992
0.0803902
0.131904
0.282315
0.390401
0.462982
0.5094
0.538981
0.558041
0.570944
0.581221
0.58966
0.591686
0.593949
0.597159
0.599973
0.602325
0.60464
0.607
0.605301
0.598143
0.584388
0.567907
0.548219
0.522919
0.490091
0.435871
0.387518
0.356371
0.329036
0.264147
0.0812056
0.130435
0.271103
0.375056
0.446686
0.49355
0.52397
0.543784
0.557221
0.568182
0.575377
0.575763
0.576678
0.578305
0.579155
0.579431
0.578977
0.579155
0.577669
0.570755
0.556757
0.541247
0.527372
0.516615
0.51035
0.503232
0.459923
0.391785
0.3411
0.27084
0.0823984
0.128947
0.259952
0.359374
0.42958
0.476547
0.507444
0.527684
0.541352
0.552687
0.558147
0.55705
0.556367
0.556167
0.554671
0.552296
0.549061
0.546001
0.541307
0.53399
0.519593
0.503874
0.49127
0.483528
0.484663
0.495385
0.506002
0.473553
0.38141
0.288097
0.0864739
0.127412
0.24915
0.34355
0.411744
0.458361
0.489384
0.509769
0.523469
0.534711
0.538196
0.53588
0.533562
0.531428
0.527549
0.522482
0.516431
0.51028
0.501654
0.490498
0.474287
0.45728
0.444708
0.437297
0.440859
0.456319
0.481005
0.512502
0.481885
0.361864
0.106063
0.125779
0.238511
0.327591
0.393321
0.439159
0.469957
0.490233
0.503809
0.514536
0.516125
0.512899
0.509134
0.505143
0.499034
0.491667
0.483152
0.473958
0.461358
0.445767
0.426014
0.406359
0.392079
0.384703
0.388725
0.404715
0.431587
0.473474
0.512073
0.42313
0.125661
0.123993
0.228081
0.311566
0.374465
0.419128
0.449428
0.4694
0.482702
0.492688
0.492826
0.488874
0.483947
0.478306
0.47027
0.461222
0.450884
0.439356
0.42255
0.401963
0.379219
0.358073
0.342166
0.335424
0.339001
0.352939
0.37752
0.418015
0.461838
0.419413
0.139232
0.122077
0.21805
0.29574
0.355461
0.398577
0.428185
0.447724
0.46068
0.469866
0.469087
0.464675
0.458787
0.451768
0.442282
0.431987
0.420762
0.407561
0.386866
0.361703
0.337561
0.317132
0.30356
0.299116
0.304718
0.317213
0.337227
0.371108
0.403996
0.396955
0.151325
0.120122
0.208642
0.280588
0.336849
0.37798
0.406735
0.425765
0.438321
0.446777
0.445615
0.441059
0.434436
0.426246
0.415951
0.404792
0.393491
0.379286
0.355111
0.327222
0.304637
0.288218
0.281166
0.284245
0.296761
0.311949
0.329782
0.34642
0.362868
0.367324
0.162195
0.118196
0.199888
0.266425
0.319054
0.357913
0.385597
0.404025
0.416124
0.424045
0.422991
0.418477
0.411462
0.402416
0.39191
0.380288
0.369539
0.355697
0.32764
0.299872
0.282255
0.273741
0.277949
0.294143
0.320718
0.345845
0.361871
0.359056
0.350672
0.340557
0.171984
0.1163
0.191767
0.253214
0.302218
0.338729
0.365153
0.382915
0.394582
0.402093
0.401646
0.39736
0.390151
0.380745
0.370318
0.359151
0.349026
0.335042
0.305737
0.280412
0.270893
0.27367
0.29455
0.330635
0.37842
0.419665
0.437014
0.416269
0.374524
0.33254
0.180532
0.114424
0.184268
0.24085
0.286351
0.320561
0.345648
0.362788
0.374065
0.381248
0.381774
0.377984
0.370876
0.361564
0.351272
0.341116
0.331836
0.317587
0.289237
0.269053
0.269146
0.286425
0.329802
0.393404
0.471288
0.535649
0.562204
0.524684
0.444045
0.348505
0.190383
0.112574
0.177345
0.229349
0.271523
0.303526
0.327261
0.343879
0.354787
0.361807
0.363408
0.360428
0.353844
0.344944
0.335173
0.32639
0.317939
0.303916
0.278301
0.265513
0.27516
0.309041
0.381062
0.473006
0.562136
0.637373
0.691664
0.674871
0.569111
0.396442
0.202687
0.110777
0.170907
0.218781
0.257848
0.287762
0.310137
0.326287
0.336966
0.343923
0.346471
0.344623
0.339037
0.330764
0.321926
0.314635
0.306956
0.293935
0.274008
0.268091
0.286417
0.338065
0.429453
0.524788
0.602876
0.681599
0.756773
0.782753
0.727593
0.487933
0.219497
0.109064
0.164977
0.209164
0.245353
0.273316
0.294357
0.309998
0.320637
0.327725
0.331005
0.330285
0.32599
0.319049
0.311593
0.305992
0.299203
0.287533
0.274197
0.275375
0.301026
0.368208
0.464797
0.548552
0.609653
0.693283
0.781451
0.837212
0.836391
0.61486
0.241154
0.107445
0.159615
0.200411
0.233999
0.260179
0.279994
0.294983
0.305694
0.312946
0.316921
0.317546
0.31443
0.30908
0.303273
0.299746
0.294531
0.283867
0.276808
0.284935
0.31806
0.394346
0.48586
0.553069
0.608697
0.69861
0.801275
0.881437
0.910218
0.735373
0.263132
0.105904
0.154819
0.192389
0.223686
0.24826
0.267031
0.281413
0.292193
0.299732
0.304259
0.305899
0.304161
0.3006
0.296772
0.295788
0.293012
0.282192
0.281097
0.294904
0.333963
0.4124
0.494143
0.550656
0.614759
0.720503
0.837286
0.930462
0.969758
0.831335
0.287935
0.104423
0.150445
0.185028
0.214325
0.237406
0.255278
0.269208
0.280049
0.287737
0.293009
0.295605
0.294735
0.292914
0.291204
0.293164
0.294492
0.283516
0.287566
0.30641
0.351294
0.428673
0.501981
0.554927
0.631637
0.756613
0.897871
0.991086
0.999734
0.894464
0.343197
0.103007
0.146335
0.178372
0.205949
0.227746
0.244768
0.258285
0.268912
0.276805
0.282482
0.286239
0.286448
0.285995
0.286424
0.292875
0.301098
0.28953
0.295855
0.31925
0.369235
0.446676
0.51217
0.567713
0.657331
0.806078
0.984512
1.0745
1.03665
0.932727
0.356397
0.101667
0.142508
0.172455
0.19853
0.219207
0.235457
0.248648
0.258915
0.267134
0.272738
0.277467
0.279247
0.280682
0.284438
0.297185
0.305338
0.299936
0.305829
0.330418
0.383901
0.461474
0.524677
0.588473
0.695543
0.871734
1.09832
1.18035
1.08398
0.882649
0.370702
0.229588
0.226159
0.222637
0.219204
0.215747
0.212234
0.209594
0.206437
0.203964
0.201639
0.199351
0.197448
0.19554
0.193661
0.19186
0.190186
0.188572
0.187055
0.185684
0.1844
0.183162
0.181985
0.180862
0.179793
0.178674
0.177447
0.176166
0.174814
0.173398
0.171956
0.170504
0.169026
0.167551
0.166119
0.164758
0.16348
0.162216
0.16081
0.159148
0.157175
0.15491
0.152179
0.149222
0.146026
0.142704
0.139309
0.135759
0.131905
0.128727
0.125936
0.123445
0.12141
0.119796
0.118492
0.117383
0.116415
0.115534
0.114718
0.113965
0.113265
0.11261
0.111986
0.111412
0.110887
0.110367
0.109804
0.109192
0.108533
0.107865
0.10722
0.106624
0.106106
0.105665
0.105283
0.104937
0.104595
0.104224
0.103803
0.103257
0.102502
0.10154
0.100442
0.0992605
0.0980336
0.0967927
0.0955624
0.0943708
0.0932475
0.0922212
0.0913012
0.0904736
0.0897262
0.0890523
0.0884474
0.0879288
0.0875083
0.0871878
0.0869585
0.0868106
0.0867344
0.0867247
0.0867761
0.0868841
0.0870454
0.0872524
0.0874953
0.087767
0.088066
0.0883961
0.0887626
0.0891678
0.089617
0.0901122
0.0906441
0.0912108
0.0918386
0.092548
0.0933416
0.094152
0.0949516
0.0958599
0.0968756
0.097968
0.0991534
0.10044
0.319259
0.313434
0.303957
0.295312
0.287704
0.282123
0.277769
0.273617
0.269701
0.266073
0.263424
0.261058
0.258807
0.256451
0.254158
0.251906
0.249702
0.247733
0.246365
0.245651
0.245636
0.246467
0.248398
0.251675
0.256181
0.261528
0.267462
0.273848
0.280826
0.288696
0.297526
0.306792
0.315842
0.32464
0.333421
0.342378
0.351564
0.360908
0.37004
0.377615
0.382653
0.384192
0.382635
0.378511
0.371749
0.360502
0.343449
0.323743
0.302493
0.28149
0.261633
0.24415
0.228927
0.215839
0.204706
0.195352
0.187743
0.181594
0.176631
0.172635
0.169399
0.166705
0.164451
0.162598
0.161128
0.160012
0.159225
0.158635
0.15818
0.157937
0.157884
0.158036
0.158352
0.15878
0.159251
0.159649
0.159949
0.160467
0.160944
0.160528
0.158874
0.156563
0.153876
0.150754
0.147212
0.143392
0.139737
0.136286
0.132992
0.129964
0.127269
0.124904
0.122891
0.121241
0.119883
0.118801
0.117952
0.117293
0.116786
0.116407
0.116128
0.115934
0.11581
0.115753
0.11577
0.11587
0.116051
0.116297
0.11664
0.117061
0.117539
0.118136
0.118829
0.119552
0.120315
0.121347
0.122754
0.124284
0.125601
0.126969
0.128779
0.130941
0.133337
0.135982
0.139059
0.28661
0.282999
0.278565
0.275072
0.273495
0.271084
0.270714
0.270243
0.269688
0.269814
0.270335
0.270928
0.271622
0.272528
0.273477
0.274478
0.275774
0.277346
0.279366
0.281967
0.285366
0.289704
0.29517
0.301797
0.309389
0.317722
0.32691
0.336667
0.346736
0.357689
0.370368
0.385121
0.402449
0.423786
0.450181
0.480307
0.511619
0.541813
0.569675
0.593072
0.608348
0.616986
0.621428
0.621136
0.614536
0.596979
0.570578
0.539477
0.502013
0.46064
0.420015
0.381499
0.347647
0.317843
0.292922
0.272658
0.256169
0.242676
0.231599
0.222505
0.21518
0.209432
0.205133
0.20191
0.199421
0.197484
0.196149
0.19557
0.195628
0.195933
0.196223
0.196588
0.197179
0.197917
0.198719
0.199429
0.199935
0.20002
0.19907
0.197943
0.196557
0.194717
0.192744
0.190655
0.188397
0.185744
0.18224
0.177774
0.172411
0.16621
0.159533
0.153695
0.148586
0.144306
0.141067
0.138709
0.136977
0.135664
0.134664
0.133927
0.133422
0.133117
0.132992
0.133014
0.133143
0.133343
0.133611
0.133945
0.134348
0.134841
0.135446
0.136183
0.136986
0.137858
0.138849
0.14018
0.142049
0.144316
0.14654
0.148795
0.151526
0.154648
0.158235
0.162409
0.1672
0.258761
0.259754
0.261086
0.262658
0.264332
0.264651
0.266083
0.267354
0.26931
0.271803