/*--------------------------------*- C++ -*----------------------------------*\
| =========                 |                                                 |
| \\      /  F ield         | OpenFOAM: The Open Source CFD Toolbox           |
|  \\    /   O peration     | Version:  2112                                  |
|   \\  /    A nd           | Website:  www.openfoam.com                      |
|    \\/     M anipulation  |                                                 |
\*---------------------------------------------------------------------------*/
FoamFile
{
    version     2.0;
    format      ascii;
    arch        "LSB;label=32;scalar=64";
    class       volScalarField;
    location    "0.00647";
    object      nut;
}
// * * * * * * * * * * * * * * * * * * * * * * * * * * * * * * * * * * * * * //

dimensions      [0 2 -1 0 0 0 0];

internalField   nonuniform List<scalar> 
13875
(
0.0511678
0.0366256
0.0343657
0.034332
0.0342954
0.0343366
0.0342859
0.034286
0.0343037
0.0342904
0.0342795
0.0342939
0.0343248
0.0343416
0.0343306
0.034293
0.0342669
0.0342902
0.0343024
0.0343266
0.0343036
0.0343341
0.0343822
0.0365713
0.0514287
0.0532619
0.0341202
0.0322223
0.0321096
0.0320597
0.0320856
0.0320323
0.0320442
0.0320593
0.0320411
0.0320246
0.0320464
0.032056
0.0320725
0.0320606
0.0320468
0.032003
0.0320342
0.0320461
0.0320758
0.0320635
0.0321022
0.0322288
0.0340563
0.0536382
0.0564567
0.033562
0.0318028
0.0315954
0.0315669
0.0315806
0.0314717
0.0314693
0.0314772
0.0314548
0.0314331
0.0314622
0.031532
0.0315559
0.0315349
0.0314643
0.0314074
0.0314444
0.0314782
0.0315675
0.0315644
0.0315801
0.0317951
0.0334951
0.0565952
0.0590702
0.0332329
0.0314892
0.0312786
0.0312596
0.0312664
0.031147
0.0311305
0.0311306
0.0311085
0.0310923
0.0311153
0.0312154
0.0312399
0.0312186
0.0311162
0.0310722
0.0311023
0.0311468
0.0312538
0.0312553
0.0312623
0.0314855
0.0331688
0.0591443
0.0611257
0.0330041
0.031246
0.0310039
0.0309829
0.0309822
0.0308623
0.0308408
0.0308404
0.0308209
0.0308053
0.0308256
0.0309266
0.0309544
0.0309301
0.0308266
0.0307858
0.0308149
0.0308596
0.0309687
0.0309769
0.0309897
0.0312308
0.0329188
0.0612584
0.0628186
0.0328482
0.031089
0.0307718
0.0307512
0.030733
0.0306033
0.030577
0.0305762
0.0305591
0.0305434
0.0305612
0.030664
0.0306944
0.0306679
0.0305619
0.0305256
0.0305537
0.0306002
0.0307198
0.0307439
0.030761
0.0310593
0.0328225
0.0629756
0.0648272
0.0330731
0.0311039
0.0306328
0.0305679
0.0305257
0.0303785
0.03034
0.0303387
0.0303234
0.030308
0.0303224
0.0304279
0.0304582
0.0304287
0.0303214
0.0302929
0.0303212
0.0303765
0.0305124
0.0305607
0.0306332
0.0311138
0.0330708
0.0648707
0.067094
0.0339364
0.031425
0.0306508
0.0304855
0.0303746
0.0301954
0.0301366
0.0301315
0.0301176
0.0301015
0.0301091
0.0302188
0.0302517
0.0302191
0.0301074
0.0300895
0.0301217
0.0301905
0.030358
0.030468
0.0306299
0.0313925
0.033896
0.0673634
0.073646
0.0362963
0.0320419
0.0308467
0.0304774
0.0302843
0.030057
0.0299706
0.0299589
0.0299484
0.0299334
0.029934
0.030048
0.030084
0.0300498
0.0299348
0.0299242
0.0299604
0.0300465
0.0302614
0.0304522
0.030803
0.0319365
0.0360005
0.074194
0.0828999
0.0384699
0.0327351
0.0311888
0.0305872
0.0302498
0.0299842
0.0298864
0.0298615
0.0298495
0.0298369
0.0298324
0.0299458
0.0299853
0.0299524
0.0298481
0.0298356
0.0298772
0.0299701
0.0302244
0.0305532
0.031086
0.0326233
0.0381032
0.0835417
0.0907222
0.0441431
0.0346548
0.0320072
0.030838
0.0303635
0.03005
0.029915
0.0298744
0.0298537
0.0298393
0.0298318
0.0299392
0.0299812
0.0299585
0.0298787
0.0298631
0.029911
0.0300434
0.0303125
0.0308012
0.0318884
0.0343697
0.0432689
0.0893472
0.0950649
0.0545384
0.0403713
0.0334588
0.0318934
0.0308557
0.0303452
0.0301489
0.0300712
0.030034
0.0300145
0.0300088
0.0301007
0.0301455
0.0301387
0.0300893
0.0300806
0.0301536
0.0303361
0.0308503
0.0318108
0.0332215
0.0398324
0.0533475
0.0942604
0.0866106
0.0689209
0.0514851
0.041753
0.0343884
0.0319506
0.0313151
0.0308532
0.0306713
0.0305821
0.0305408
0.03053
0.0306003
0.0306468
0.0306632
0.0306605
0.0307133
0.030904
0.0313661
0.0320278
0.0347835
0.0415653
0.0508352
0.0687484
0.0866078
0.0796053
0.0660475
0.0581225
0.0657353
0.0418627
0.0373049
0.0337546
0.0326207
0.0321657
0.0320643
0.0320279
0.0320215
0.0320843
0.0321287
0.0321563
0.0321775
0.0322269
0.0326299
0.0341383
0.0383331
0.043403
0.065704
0.0578465
0.0661641
0.0816107
0.0753446
0.0643794
0.0566349
0.0607563
0.0559313
0.0543097
0.0448344
0.0392845
0.0371933
0.036168
0.0358042
0.0356657
0.0356992
0.0357598
0.035869
0.0361757
0.0370047
0.0391503
0.0452794
0.055525
0.0559076
0.061309
0.0566555
0.0641887
0.0746835
0.067218
0.0619476
0.054462
0.0575888
0.0561472
0.0575811
0.0552192
0.0529295
0.0518569
0.0488139
0.0478189
0.0474009
0.0472867
0.0474006
0.0476385
0.0482934
0.0512571
0.0542098
0.0557198
0.0580352
0.0558266
0.0582342
0.0544239
0.0615479
0.0665303
0.0625442
0.0584428
0.0527695
0.0554491
0.0572989
0.061786
0.0683086
0.0765236
0.0743327
0.0709436
0.0731911
0.0746535
0.0755784
0.0753517
0.0739734
0.0726857
0.0725049
0.0766649
0.0706955
0.0624947
0.0572691
0.0558296
0.052277
0.0578024
0.0625945
0.0571635
0.0549142
0.0534968
0.0571
0.0605463
0.0645864
0.0735061
0.0847064
0.0749488
0.0686689
0.069062
0.0695565
0.0704281
0.0701073
0.0696926
0.0709724
0.0741838
0.0811136
0.0739298
0.0657584
0.0619969
0.0583211
0.0534998
0.0544788
0.0569679
0.051404
0.0542929
0.056331
0.0632513
0.0683429
0.0656704
0.069111
0.0778727
0.0746279
0.0695528
0.0687
0.0682861
0.0686076
0.0690724
0.0694446
0.0702191
0.0729975
0.0761281
0.0693156
0.0664581
0.0711796
0.0654593
0.0572015
0.0546348
0.0521118
0.0493286
0.0569841
0.0607156
0.0675855
0.0698164
0.0648935
0.0648814
0.0714843
0.0729402
0.0703204
0.0685787
0.0667773
0.0663965
0.0677344
0.0692478
0.0700565
0.0709405
0.070029
0.0651245
0.0659832
0.0716904
0.0686836
0.0619292
0.0574358
0.0487008
0.0740573
0.0840039
0.0739839
0.0654162
0.0657315
0.0619294
0.0615076
0.0673559
0.0709162
0.0697037
0.0673935
0.0646617
0.0639065
0.0658876
0.0681445
0.0690629
0.0687544
0.0660153
0.0618527
0.0631836
0.0673165
0.0659531
0.0746443
0.0818416
0.0701609
0.123948
0.135001
0.0833041
0.0615754
0.0615169
0.0589124
0.0588705
0.0643645
0.0687201
0.0681672
0.0655093
0.062226
0.061221
0.0635443
0.0663045
0.0673772
0.0665369
0.0632108
0.0592003
0.0600877
0.0628841
0.062384
0.0858886
0.133247
0.121462
0.142374
0.114451
0.0782253
0.0587411
0.0581329
0.0564381
0.0565653
0.0619271
0.0665
0.0660985
0.0632455
0.0597171
0.0584912
0.0609422
0.0640088
0.0652708
0.0643604
0.0609124
0.05681
0.0574661
0.0591882
0.05958
0.0794395
0.11575
0.143153
0.151026
0.114672
0.071968
0.0566794
0.0553764
0.0542162
0.0545426
0.0597033
0.0642896
0.0638035
0.0607487
0.0571162
0.055899
0.0583864
0.0616285
0.0630931
0.0622051
0.058661
0.0547541
0.055229
0.0564141
0.057686
0.0734737
0.118195
0.150734
0.155805
0.114596
0.0686246
0.0553349
0.0533255
0.0522911
0.0529176
0.0577156
0.0620484
0.0614568
0.0583693
0.0547167
0.0535017
0.0559703
0.0592992
0.0608545
0.0600608
0.0566407
0.0530139
0.0532235
0.0544054
0.0564692
0.0702411
0.118781
0.156049
0.161825
0.118694
0.0665412
0.0540422
0.0517155
0.0506755
0.0516253
0.055973
0.0598818
0.059173
0.0561211
0.0525158
0.0513013
0.0536846
0.0569488
0.0585784
0.0579576
0.0548598
0.0515505
0.0513593
0.0526884
0.0551081
0.0673998
0.117574
0.163543
0.169139
0.117322
0.0640816
0.0527583
0.0503991
0.0493325
0.0505641
0.0544188
0.0576848
0.0568178
0.053882
0.0504738
0.0493102
0.0516567
0.05484
0.0564531
0.0560104
0.0532836
0.0502774
0.049861
0.0513886
0.053937
0.065231
0.116751
0.168579
0.174593
0.117699
0.0626517
0.0517635
0.0494254
0.0483085
0.0496218
0.0530029
0.0556923
0.0547009
0.0518928
0.0486492
0.0475
0.0497531
0.0527762
0.0543958
0.0541564
0.0518777
0.0492198
0.0486489
0.0502309
0.0528289
0.0636582
0.117742
0.175037
0.180427
0.119583
0.0618238
0.0509244
0.0486316
0.0475856
0.0487952
0.0516871
0.0538233
0.0527467
0.0500967
0.0470093
0.0458645
0.04799
0.0508273
0.0524107
0.0523739
0.0505628
0.0482789
0.0476983
0.0492209
0.0517965
0.0622284
0.116362
0.181623
0.186667
0.119298
0.0612208
0.0501918
0.0478537
0.0470538
0.0481602
0.0504678
0.0519978
0.0508071
0.0483148
0.0454724
0.0443795
0.0464634
0.0491458
0.0506905
0.0507972
0.0493791
0.0474679
0.0469843
0.0483182
0.0509865
0.0617726
0.118032
0.18577
0.188663
0.11744
0.06095
0.0497357
0.0472461
0.0465471
0.0475391
0.0493414
0.0503791
0.049135
0.0467934
0.0441153
0.0430418
0.0450129
0.0475182
0.0490174
0.0492859
0.0482945
0.0468024
0.0463824
0.0475406
0.0503509
0.0613487
0.117495
0.190705
0.190712
0.118305
0.0609378
0.0496232
0.0466716
0.0460117
0.0469487
0.0483291
0.0489623
0.0476569
0.0454214
0.0428894
0.0418303
0.043693
0.0460356
0.0475219
0.0479401
0.047304
0.0461793
0.0457621
0.0468838
0.0500326
0.0611765
0.115501
0.192586
0.194162
0.115884
0.0611155
0.0497269
0.0462276
0.04557
0.0463475
0.0473417
0.0475566
0.0462108
0.0441121
0.0417482
0.0407411
0.0425436
0.04476
0.0461918
0.0467201
0.0463841
0.0455689
0.0452127
0.0463233
0.0500164
0.0615907
0.115716
0.194381
0.195375
0.114821
0.0614912
0.0501249
0.0459699
0.0451759
0.045702
0.0464413
0.0463511
0.0449772
0.0429688
0.0407317
0.0397479
0.0414573
0.0435395
0.0449606
0.0455763
0.0455261
0.0449393
0.0447204
0.0459147
0.0502563
0.0620747
0.114723
0.196583
0.196622
0.114917
0.0614019
0.0506834
0.0460669
0.0447554
0.0450634
0.0455712
0.045239
0.0438443
0.041938
0.0398074
0.0388548
0.0404751
0.0424373
0.0438241
0.0445207
0.0446942
0.0442891
0.0442835
0.0458359
0.0507501
0.0622108
0.113824
0.197508
0.198698
0.113783
0.0610683
0.0512827
0.0463631
0.0444293
0.0444603
0.044702
0.0442078
0.0427858
0.0409405
0.0389409
0.0380346
0.0396071
0.0414707
0.0428423
0.0436079
0.0439041
0.0436783
0.0438888
0.0460429
0.0514319
0.0621727
0.115001
0.198568
0.199109
0.114033
0.0609085
0.0522727
0.0469094
0.0442255
0.043933
0.043901
0.0432422
0.0418436
0.0400789
0.0381694
0.0372921
0.0387798
0.0405484
0.0418969
0.042696
0.0431385
0.0431489
0.0436157
0.0464767
0.0522964
0.0618814
0.114267
0.199942
0.199487
0.115755
0.0608508
0.0534945
0.0476067
0.0442095
0.043433
0.0431502
0.0423678
0.0409995
0.0392909
0.0374617
0.0366095
0.0380202
0.0397143
0.0410488
0.0418607
0.0424139
0.042644
0.043546
0.0471664
0.0538318
0.0617482
0.115885
0.200061
0.200289
0.115803
0.0603222
0.0540764
0.0486518
0.0444494
0.0430481
0.0424475
0.0415085
0.0401641
0.0385323
0.0367986
0.0359879
0.0373554
0.038975
0.0402694
0.0410883
0.0417681
0.0422616
0.0437315
0.0483591
0.0550304
0.0617119
0.117985
0.200111
0.200016
0.11719
0.0596226
0.0541638
0.0498895
0.0448822
0.042798
0.0418503
0.0407807
0.0394458
0.037851
0.0361913
0.0354091
0.0367162
0.0382558
0.0395453
0.0403872
0.0412009
0.0420362
0.0441653
0.0496202
0.0550507
0.0611065
0.118628
0.200656
0.200079
0.119092
0.0590418
0.0540091
0.0518327
0.0456048
0.0427907
0.0413986
0.0401304
0.0387741
0.0372232
0.0356295
0.0348796
0.0361293
0.0375943
0.038869
0.0397569
0.0407798
0.0420458
0.0449033
0.0517345
0.0549683
0.0603651
0.119456
0.200472
0.200618
0.120356
0.058457
0.0535051
0.0529691
0.0466034
0.0429329
0.0411434
0.0395819
0.0381561
0.0366155
0.0350981
0.0343849
0.0356012
0.0370108
0.0382948
0.039261
0.0405258
0.0421965
0.0460487
0.053242
0.0546398
0.0599302
0.120983
0.200657
0.200352
0.122158
0.0580847
0.0528548
0.0529786
0.0482112
0.0433144
0.0410789
0.039201
0.0376304
0.0360859
0.0346217
0.0339288
0.0350941
0.0364525
0.0377638
0.0388917
0.04046
0.0425586
0.0475953
0.0534191
0.0538592
0.0593257
0.121841
0.200928
0.200239
0.124158
0.0585772
0.0522436
0.0524911
0.0503241
0.0440893
0.0411386
0.0390451
0.037243
0.0356202
0.0341836
0.033502
0.034628
0.0359591
0.0373451
0.0387161
0.0405603
0.0434041
0.0500923
0.0530746
0.0531053
0.0589368
0.123418
0.200787
0.200181
0.125684
0.0584439
0.0516383
0.0517213
0.0514282
0.0456116
0.0414229
0.0389606
0.0369933
0.0352307
0.0337899
0.0331194
0.0342326
0.0355742
0.0370771
0.0386576
0.0409093
0.0452738
0.0516668
0.0524967
0.0526462
0.0594241
0.12524
0.200783
0.199576
0.127085
0.0592335
0.0512404
0.0509031
0.0510443
0.0481859
0.0422732
0.0390648
0.0369263
0.0350068
0.0334943
0.032802
0.033915
0.0353282
0.0369728
0.0387255
0.041779
0.047979
0.0513551
0.0517445
0.0522018
0.0596954
0.126627
0.200702
0.198823
0.128559
0.0604266
0.0510446
0.0502572
0.050466
0.049654
0.0442843
0.0393863
0.0368922
0.0349185
0.0333402
0.0325698
0.03374
0.0352223
0.0369352
0.0390202
0.0438613
0.0497105
0.0507647
0.0510494
0.0519311
0.0604617
0.127816
0.200023
0.197179
0.129148
0.0609053
0.0508751
0.0497219
0.0497677
0.0493408
0.0470212
0.040448
0.0369526
0.0348826
0.0332852
0.0324597
0.0336865
0.0351895
0.0370201
0.0401651
0.0469248
0.0494206
0.0500196
0.0504995
0.0519155
0.0620694
0.128872
0.198047
0.194231
0.128835
0.061631
0.0508519
0.0492988
0.0490694
0.0488733
0.0485836
0.0427924
0.0373638
0.0349278
0.0332911
0.0324543
0.0336819
0.0352092
0.0373851
0.0425479
0.0486988
0.0489666
0.0492557
0.0500389
0.0518955
0.0628643
0.128705
0.195183
0.18609
0.126003
0.0620382
0.0508187
0.0489438
0.0484569
0.0482473
0.0482434
0.0456508
0.0387626
0.0351959
0.0333322
0.0324871
0.0337133
0.0354495
0.0386868
0.0455826
0.0484039
0.0483459
0.0486304
0.0496411
0.0518666
0.0631115
0.125835
0.187159
0.144807
0.342837
0.552739
0.689393
0.759342
0.751157
0.726574
0.693383
0.628139
0.522213
0.434124
0.393286
0.394929
0.421337
0.455951
0.488255
0.515234
0.537402
0.555654
0.571231
0.585488
0.596852
0.602644
0.594981
0.536483
0.433909
0.365858
0.302254
0.219252
0.10017
0.140667
0.390869
0.657825
0.792104
0.822286
0.785195
0.749985
0.727013
0.693072
0.610658
0.485093
0.409537
0.391281
0.408231
0.439606
0.471687
0.499248
0.522481
0.5421
0.558758
0.574307
0.587757
0.597128
0.598609
0.573294
0.463622
0.365221
0.294329
0.211533
0.0981582
0.152749
0.452791
0.730253
0.835006
0.825339
0.774685
0.736726
0.719992
0.697685
0.631264
0.50732
0.420289
0.388161
0.395953
0.423158
0.453913
0.481751
0.505456
0.525771
0.543392
0.559482
0.573523
0.584503
0.58964
0.579343
0.503468
0.371322
0.2863
0.203535
0.0963057
0.164835
0.522943
0.78819
0.859008
0.813171
0.755187
0.716901
0.707049
0.69749
0.649334
0.542111
0.43843
0.3891
0.385298
0.406242
0.434969
0.463241
0.487558
0.508427
0.526796
0.543444
0.558726
0.57025
0.577449
0.574095
0.536231
0.402241
0.283579
0.19682
0.0946152
0.174487
0.59603
0.842592
0.86989
0.79811
0.732194
0.691164
0.685616
0.685061
0.647446
0.557018
0.449977
0.390053
0.376042
0.390541
0.416369
0.444265
0.468942
0.490493
0.509255
0.525947
0.540839
0.552011
0.558832
0.558188
0.537849
0.457522
0.297242
0.192884
0.0933451
0.186448
0.666252
0.887628
0.868221
0.777542
0.705098
0.661777
0.661484
0.666391
0.634676
0.55921
0.45441
0.389042
0.367769
0.376563
0.399065
0.425425
0.450288
0.472297
0.491004
0.507135
0.521174
0.53178
0.537616
0.536962
0.521819
0.4759
0.343137
0.197748
0.0926525
0.200233
0.733267
0.924291
0.861192
0.753129
0.675647
0.633668
0.636376
0.647233
0.617494
0.551059
0.449366
0.385311
0.360151
0.363991
0.383313
0.407771
0.432126
0.453909
0.472309
0.487786
0.500537
0.510073
0.514851
0.513321
0.499665
0.465361
0.385407
0.220652
0.093304
0.215971
0.800095
0.953148
0.849424
0.726977
0.64641
0.608402
0.612755
0.626901
0.598853
0.536427
0.441647
0.379414
0.351986
0.352568
0.369251
0.39181
0.415136
0.43648
0.454421
0.468853
0.480036
0.48805
0.491641
0.489195
0.476509
0.446278
0.389813
0.265489
0.100149
0.23231
0.864936
0.97156
0.832852
0.701613
0.623559
0.588156
0.592617
0.607704
0.579793
0.517428
0.432244
0.371704
0.343697
0.34281
0.357316
0.377977
0.400125
0.420652
0.437763
0.450966
0.46072
0.467167
0.46942
0.466147
0.454482
0.428411
0.38136
0.296911
0.124442
0.248533
0.92277
0.979051
0.813743
0.67937
0.606319
0.572565
0.574978
0.590309
0.562199
0.498459
0.421077
0.362555
0.336348
0.335017
0.347868
0.366869
0.387479
0.406916
0.422935
0.434913
0.44326
0.448175
0.449331
0.445626
0.434943
0.413571
0.377638
0.319146
0.137792
0.264963
0.971886
0.977841
0.794846
0.663449
0.593684
0.560911
0.55909
0.572442
0.546732
0.485182
0.408109
0.352923
0.330037
0.329655
0.341157
0.358539
0.37739
0.395486
0.409968
0.420656
0.427705
0.431323
0.431625
0.428069
0.419217
0.402854
0.379905
0.347832
0.142314
0.28235
1.01125
0.967292
0.777336
0.654088
0.585497
0.54943
0.541039
0.551285
0.528141
0.471817
0.392777
0.345032
0.326068
0.327325
0.337557
0.352764
0.370014
0.386083
0.399142
0.408323
0.414005
0.416495
0.415946
0.412262
0.405561
0.395142
0.387574
0.362029
0.144578
0.301437
1.03463
0.956528
0.765956
0.649049
0.580369
0.539681
0.523629
0.525759
0.50275
0.447772
0.379044
0.339762
0.326064
0.327894
0.336756
0.349855
0.364939
0.37869
0.389789
0.397493
0.401635
0.402639
0.401415
0.39801
0.393564
0.392316
0.405141
0.359443
0.144341
0.319064
1.05342
0.949331
0.760709
0.648892
0.579517
0.533585
0.507153
0.497466
0.471671
0.420039
0.37008
0.338911
0.329907
0.331639
0.338641
0.349443
0.36176
0.372835
0.381675
0.387584
0.390146
0.389879
0.387571
0.384676
0.384139
0.396686
0.408961
0.343897
0.142481
0.335021
1.07107
0.94809
0.762455
0.65553
0.584459
0.533119
0.495746
0.473891
0.444365
0.401457
0.367251
0.343578
0.336826
0.337634
0.342528
0.350934
0.359786
0.367962
0.374345
0.37829
0.379168
0.377613
0.374784
0.373489
0.379665
0.408341
0.395608
0.323897
0.140365
0.34938
1.08942
0.954151
0.772374
0.6693
0.59697
0.539718
0.492891
0.460214
0.427986
0.394146
0.370574
0.35255
0.345355
0.344953
0.347403
0.353035
0.358766
0.363723
0.367483
0.369267
0.368389
0.365909
0.36362
0.366116
0.382204
0.409315
0.375946
0.306576
0.138741
0.363862
1.1114
0.968175
0.790822
0.690963
0.620008
0.560002
0.504105
0.461249
0.426391
0.398349
0.37899
0.363163
0.35462
0.352487
0.352651
0.355484
0.357832
0.359595
0.360849
0.360432
0.358252
0.355559
0.355307
0.363546
0.390247
0.397236
0.356755
0.294393
0.137954
0.378344
1.13786
0.990932
0.817582
0.721787
0.654914
0.597173
0.536436
0.485727
0.445893
0.415871
0.393816
0.375863
0.365711
0.360601
0.358809
0.358105
0.357233
0.356037
0.354792
0.352456
0.3496
0.347464
0.350643
0.367164
0.394961
0.381645
0.341894
0.285821
0.137104
0.391005
1.16948
1.02275
0.852701
0.762534
0.702997
0.652084
0.591938
0.535533
0.487081
0.448308
0.418079
0.394802
0.380764
0.371372
0.366142
0.361246
0.357156
0.353323
0.34986
0.346263
0.34309
0.342287
0.349943
0.374209
0.389264
0.367263
0.331389
0.280057
0.136368
0.403884
1.20707
1.06232
0.895302
0.812589
0.763466
0.721749
0.667546
0.608938
0.551608
0.501205
0.458937
0.424975
0.402813
0.385271
0.374425
0.364761
0.357711
0.351859
0.34675
0.342383
0.33921
0.340714
0.355596
0.385799
0.380377
0.356087
0.324071
0.276546
0.135846
0.425365
1.23905
1.1055
0.943413
0.870427
0.834495
0.803619
0.760129
0.704047
0.641836
0.580585
0.524283
0.473315
0.435597
0.403705
0.384449
0.369733
0.360042
0.352378
0.346063
0.341096
0.338523
0.343722
0.366372
0.38643
0.371196
0.348459
0.31901
0.273296
0.135498
0.439987
1.27776
1.15231
0.995685
0.933206
0.91067
0.890912
0.860274
0.81255
0.752899
0.685952
0.61696
0.546041
0.484596
0.430363
0.39972
0.378666
0.365483
0.355591
0.347905
0.342376
0.341176
0.352918
0.383539
0.383455
0.364167
0.343153
0.315763
0.269895
0.135136
0.453503
1.29746
1.18744
1.04696
0.99771
0.987614
0.978337
0.958033
0.923034
0.873421
0.809274
0.733715
0.645922
0.55693
0.473315
0.425081
0.394312
0.375013
0.361555
0.352056
0.346154
0.34768
0.367666
0.389819
0.379264
0.359058
0.339577
0.312589
0.266271
0.134694
0.462181
1.28939
1.21749
1.10033
1.06692
1.06779
1.06774
1.05377
1.02828
0.992763
0.938803
0.864762
0.768823
0.65695
0.541402
0.46496
0.41885
0.3897
0.370754
0.358871
0.352832
0.359324
0.388736
0.390798
0.374497
0.354849
0.336914
0.309608
0.262433
0.134261
0.460637
1.11628
1.19941
1.15993
1.14604
1.15547
1.16271
1.15532
1.13378
1.10662
1.06502
0.998521
0.904029
0.781292
0.639614
0.524488
0.455553
0.412307
0.38521
0.368827
0.362637
0.376708
0.399238
0.388603
0.369023
0.352384
0.334778
0.30658
0.258309
0.133707
0.100042
0.219467
0.302924
0.367078
0.436459
0.538865
0.593294
0.600643
0.594963
0.583572
0.569267
0.5536
0.534868
0.512246
0.484656
0.451816
0.417417
0.392963
0.396397
0.445997
0.542999
0.649947
0.710926
0.742816
0.770637
0.781037
0.712847
0.571109
0.350817
0.146071
0.0980184
0.211728
0.295058
0.366628
0.46586
0.571934
0.596414
0.595274
0.586097
0.572598
0.557056
0.540223
0.520111
0.496328
0.468008
0.435745
0.405152
0.391268
0.416346
0.502579
0.63215
0.70792
0.739209
0.762897
0.800972
0.839448
0.812095
0.677781
0.402903
0.142166
0.0961782
0.203777
0.287144
0.372198
0.501984
0.576203
0.587378
0.582761
0.571984
0.558086
0.542085
0.524119
0.503207
0.478786
0.450449
0.419845
0.393799
0.389661
0.428708
0.525025
0.65009
0.711252
0.731603
0.748512
0.789955
0.841679
0.854256
0.751676
0.467367
0.154534
0.0944638
0.197074
0.284063
0.401152
0.535572
0.572856
0.575417
0.568167
0.556657
0.542145
0.525584
0.507
0.485353
0.460466
0.432471
0.403554
0.384311
0.3925
0.448475
0.561229
0.66539
0.709917
0.718237
0.728821
0.77038
0.82997
0.878223
0.80968
0.539995
0.167059
0.0931783
0.192937
0.296424
0.456172
0.538345
0.558025
0.558641
0.551645
0.54033
0.525089
0.508208
0.489071
0.466929
0.441745
0.414365
0.388563
0.376287
0.394972
0.460924
0.574874
0.662365
0.696328
0.695574
0.702651
0.746569
0.815215
0.889518
0.864481
0.613658
0.176933
0.0924273
0.196993
0.341353
0.477211
0.523273
0.537373
0.537957
0.53196
0.521264
0.506879
0.490159
0.470948
0.448678
0.423636
0.397412
0.375223
0.369053
0.395037
0.466234
0.575327
0.647894
0.676617
0.670257
0.671936
0.718394
0.794242
0.888522
0.909908
0.683707
0.188983
0.0928765
0.218103
0.386222
0.467825
0.501252
0.514157
0.515607
0.51074
0.501128
0.48824
0.472443
0.453279
0.431035
0.406524
0.382083
0.363239
0.361997
0.39179
0.460787
0.565292
0.629968
0.656996
0.644314
0.642683
0.687638
0.769277
0.882415
0.947653
0.751383
0.20292
0.0987069
0.262567
0.392196
0.448439
0.478218
0.490436
0.492631
0.489001
0.48086
0.469544
0.454858
0.436315
0.414203
0.390708
0.368399
0.352406
0.354464
0.386565
0.452776
0.549886
0.611021
0.636798
0.620497
0.616995
0.657854
0.742515
0.87089
0.977313
0.8183
0.218352
0.121724
0.294662
0.383751
0.430453
0.456318
0.467513
0.470375
0.468067
0.461495
0.451574
0.43796
0.420347
0.399341
0.377183
0.356816
0.343081
0.346433
0.379007
0.44334
0.530469
0.592147
0.618111
0.600558
0.596891
0.634818
0.716407
0.853999
0.996555
0.884253
0.234745
0.136753
0.317734
0.379036
0.415339
0.43648
0.446628
0.450045
0.448757
0.44362
0.435093
0.422673
0.406293
0.38678
0.36631
0.347585
0.335578
0.339108
0.369681
0.43226
0.511771
0.575003
0.600686
0.583157
0.581338
0.617264
0.693511
0.83448
1.00522
0.943323
0.251028
0.141559
0.346376
0.380998
0.404036
0.419925
0.428549
0.432002
0.431483
0.42765
0.420391
0.40943
0.394679
0.376823
0.357793
0.341153
0.3305
0.332563
0.35973
0.418612
0.498882
0.559143
0.582148
0.567174
0.569697
0.60446
0.677222
0.81466
1.00483
0.99393
0.26747
0.143987
0.362628
0.388727
0.396165
0.405904
0.412645
0.416001
0.416186
0.413648
0.40772
0.398239
0.385169
0.369303
0.352277
0.337584
0.328136
0.328274
0.350673
0.402599
0.48441
0.539219
0.559589
0.548778
0.558394
0.596464
0.667837
0.796263
0.994164
1.03566
0.285115
0.144092
0.360666
0.406239
0.393617
0.39407
0.398091
0.401247
0.402291
0.400851
0.396493
0.388749
0.377774
0.364173
0.349684
0.336896
0.328742
0.32775
0.344036
0.387758
0.457932
0.511595
0.531928
0.53069
0.54877
0.591463
0.662795
0.784673
0.983005
1.06033
0.304269
0.142423
0.345504
0.410111
0.398098
0.385153
0.385
0.387538
0.389373
0.389157
0.386326
0.380503
0.371863
0.360984
0.349325
0.338836
0.332499
0.331038
0.341871
0.376547
0.427633
0.478129
0.502343
0.513883
0.542733
0.590707
0.662707
0.77913
0.975264
1.07989
0.322282
0.140323
0.32557
0.396828
0.408728
0.380708
0.373877
0.374795
0.37715
0.378241
0.37696
0.37309
0.366901
0.359121
0.35058
0.342704
0.33873
0.337621
0.345659
0.37148
0.406871
0.449411
0.478991
0.502627
0.542409
0.595786
0.669528
0.780658
0.973631
1.09846
0.338589
0.138736
0.308694
0.377374
0.409532
0.382567
0.366088
0.363362
0.365492
0.367658
0.36811
0.366223
0.362503
0.357859
0.352694
0.347567
0.345907
0.346184
0.35422
0.373428
0.398069
0.432522
0.465525
0.500126
0.549288
0.608818
0.683825
0.790614
0.979682
1.11779
0.35319
0.138109
0.295982
0.358082
0.398055
0.38936
0.363011
0.354712
0.355123
0.357661
0.359578
0.359778
0.358546
0.356997
0.355098
0.352924
0.353093
0.355567
0.364697
0.381276
0.401478
0.430683
0.466958
0.511967
0.570196
0.632511
0.705973
0.809216
0.993739
1.14068
0.367939
0.137149
0.286935
0.342906
0.382722
0.395101
0.366353
0.349789
0.346968
0.349079
0.351812
0.353945
0.355265
0.356619
0.357893
0.359309
0.360994
0.36672
0.377625
0.396186
0.419099
0.450477
0.492409
0.545677
0.608647
0.668429
0.737367
0.836376
1.0163
1.16754
0.382896
0.13642
0.281173
0.332246
0.368623
0.390083
0.372803
0.348746
0.341675
0.342705
0.345814
0.34935
0.352881
0.356987
0.361484
0.367157
0.372146
0.382053
0.397047
0.421477
0.452746
0.492839
0.543725
0.602644
0.664726
0.717468
0.779055
0.872601
1.04826
1.19892
0.396074
0.136051
0.277867
0.324947
0.357451
0.381904
0.385211
0.353707
0.339741
0.338842
0.342119
0.34661
0.351833
0.358094
0.365822
0.376531
0.387387
0.405084
0.428352
0.464114
0.507885
0.559323
0.618993
0.680137
0.735982
0.779206
0.830151
0.916718
1.08875
1.23636
0.408997
0.135911
0.274088
0.319944
0.349423
0.373357
0.387253
0.364641
0.342418
0.337982
0.340884
0.346192
0.352895
0.360998
0.371665
0.387893
0.407582
0.439994
0.47923
0.531958
0.590397
0.652316
0.715933
0.774264
0.819283
0.851692
0.889512
0.96605
1.1336
1.26848
0.430447
0.135678
0.27046
0.316517
0.343986
0.365317
0.384968
0.382315
0.351073
0.340531
0.342302
0.348428
0.356745
0.367382
0.381877
0.405027
0.437207
0.493026
0.556522
0.628744
0.699814
0.767166
0.827097
0.875878
0.907753
0.929344
0.953804
1.01962
1.18183
1.30697
0.445249
0.135051
0.266914
0.313715
0.340506
0.360426
0.381074
0.390639
0.365783
0.346916
0.346305
0.3531
0.363526
0.378131
0.399503
0.433616
0.485334
0.571488
0.662669
0.750934
0.827979
0.892648
0.941704
0.976629
0.99738
1.00719
1.01921
1.07214
1.21754
1.32649
0.458665
0.134384
0.263451
0.310938
0.337966
0.356434
0.376493
0.392626
0.387099
0.35802
0.352992
0.360255
0.373793
0.394662
0.427037
0.478486
0.56156
0.679132
0.792365
0.888151
0.962715
1.01729
1.05177
1.07622
1.08948
1.08894
1.08957
1.12501
1.24696
1.31893
0.466883
0.133779
0.259622
0.308103
0.336019
0.354022
0.371178
0.391053
0.400575
0.375305
0.362927
0.370791
0.38961
0.420157
0.468477
0.545407
0.669836
0.811909
0.934448
1.02837
1.09493
1.13641
1.16211
1.18138
1.18724
1.17868
1.17013
1.18425
1.22744
1.14047
0.464866
0.127387
0.128258
0.128083
0.128595
0.129079
0.129823
0.13065
0.131607
0.13236
0.133302
0.135107
0.13742
0.139943
0.142647
0.1458
0.149205
0.153404
0.158665
0.164865
0.172436
0.181378
0.191746
0.202321
0.212823
0.222646
0.230962
0.237699
0.24263
0.245945
0.247568
0.247574
0.245836
0.242446
0.237898
0.23277
0.227405
0.22217
0.217126
0.212123
0.206985
0.201564
0.195846
0.190084
0.184373
0.178942
0.174294
0.17025
0.166481
0.16266
0.158642
0.154551
0.150397
0.146158
0.141943
0.137831
0.13387
0.130102
0.126459
0.122897
0.11948
0.116387
0.11377
0.111586
0.109723
0.108189
0.106912
0.105855
0.105025
0.104382
0.103874
0.103462
0.103107
0.102799
0.10255
0.102373
0.102292
0.102307
0.102407
0.102578
0.102813
0.103111
0.103472
0.10389
0.104319
0.104726
0.105095
0.105427
0.105727
0.106001
0.106252
0.106483
0.106701
0.106917
0.107151
0.107431
0.107764
0.108117
0.108502
0.108906
0.109357
0.109874
0.110429
0.11102
0.111652
0.11237
0.113196
0.11409
0.115082
0.116166
0.117312
0.11851
0.119682
0.120869
0.122169
0.12351
0.124728
0.125804
0.127007
0.128333
0.129668
0.130717
0.131427
0.132099
0.132763
0.1334
0.359052
0.366313
0.368998
0.377929
0.389467
0.402694
0.419938
0.438872
0.45766
0.475173
0.491911
0.509784
0.528256
0.547438
0.571967
0.598079
0.631012
0.674178
0.73283
0.811163
0.904276
1.01713
1.13837
1.26533
1.3919
1.50897
1.61252
1.69794
1.76458
1.81189
1.84084
1.85196
1.8454
1.82215
1.78273
1.72907
1.66553
1.59689
1.52634
1.45411
1.37992
1.30427
1.22953
1.15709
1.08819
1.02312
0.961858
0.904538
0.850417
0.798132
0.748503
0.701209
0.655681
0.610982
0.568242
0.527313
0.4888
0.452421
0.419214
0.389286
0.362593
0.339119
0.318935
0.301371
0.286835
0.275319
0.266501
0.259589
0.253842
0.248736
0.244079
0.239762
0.235694
0.231712
0.227717
0.223804
0.220188
0.21705
0.214416
0.212215
0.210341
0.208674
0.207083
0.205488
0.203835
0.202091
0.200265
0.198394
0.19651
0.19464
0.192798
0.191007
0.18929
0.187702
0.18629
0.185101
0.184097
0.183294
0.182686
0.18239
0.18249
0.182969
0.183786
0.184815
0.186097
0.187753
0.1898
0.192231
0.195004
0.198091
0.20133
0.204685
0.208142
0.211646
0.215023
0.218708
0.222823
0.226926
0.23067
0.234478
0.238519
0.24247
0.24683
0.251604
0.255736
0.832228
0.84436
0.85715
0.885569
0.928819
0.973671
1.0281
1.08423
1.14097
1.18837
1.23175
1.27749
1.3184
1.34987
1.38491
1.41366
1.44989
1.49815
1.56769
1.67405
1.80617
1.97766
2.18785
2.41679
2.64858
2.8648
3.0514
3.19985
3.31223
3.38922
3.43252
3.44578
3.43171
3.39283
3.33174
3.25163
3.15642
3.05014
2.93559
2.81412
2.68631
2.55217
2.41383
2.27378
2.13463
1.99818
1.86569
1.7379
1.61492
1.49597
1.38293
1.27651
1.17704
1.08455
0.999106
0.919481
0.844561
0.773652
0.70717
0.645729
0.591089
0.543059
0.50133
0.465409
0.435037
0.410347
0.39046
0.37411
0.360381
0.348714
0.338758
0.330269
0.322948
0.31651
0.310606
0.305149
0.300137
0.295615
0.291617
0.28813
0.285073
0.282309
0.279646
0.276957
0.274152
0.271181
0.268056
0.264837
0.261602
0.258414
0.255322
0.252359
0.249554
0.246939
0.244577
0.242507
0.240711
0.239197
0.237945
0.237076
0.236749
0.236836
0.237262
0.237983
0.239022
0.240515
0.242826
0.245554
0.248489
0.251517
0.254324
0.257275
0.260438
0.263765
0.267304
0.27088
0.274096
0.277715
0.281599
0.285574
0.289585
0.293898
0.298366
0.302068
0.305232
2.2231
2.24424
2.26019
2.31894
2.40433
2.49218
2.58606
2.67188
2.74697
2.79581
2.82175
2.8344
2.8368
2.83092
2.82843
2.82925
2.83996
2.87325
2.94329
3.06674
3.25324
3.50837
3.81566
4.14815
4.47599
4.77261
5.02259
5.2159
5.3524
5.43674
5.47383
5.4697
5.4306
5.36225
5.27001
5.15867
5.03246
4.8944
4.74565
4.58567
4.41457