/*--------------------------------*- C++ -*----------------------------------*\
| =========                 |                                                 |
| \\      /  F ield         | OpenFOAM: The Open Source CFD Toolbox           |
|  \\    /   O peration     | Version:  2112                                  |
|   \\  /    A nd           | Website:  www.openfoam.com                      |
|    \\/     M anipulation  |                                                 |
\*---------------------------------------------------------------------------*/
FoamFile
{
    version     2.0;
    format      ascii;
    arch        "LSB;label=32;scalar=64";
    class       volScalarField;
    location    "0.00118";
    object      p;
}
// * * * * * * * * * * * * * * * * * * * * * * * * * * * * * * * * * * * * * //

dimensions      [1 -1 -2 0 0 0 0];

internalField   nonuniform List<scalar> 
13875
(
951463
984015
973638
975497
973414
974460
974583
974510
974921
975063
975150
975099
975181
975141
974705
974767
974362
973960
973607
973696
973078
975581
972413
982528
945340
733661
659182
672101
676961
670339
668623
668753
670424
677423
678875
678902
678940
679709
679453
678897
677184
670673
668613
668111
668320
670077
677047
672305
657275
730540
736750
635699
664660
653771
648485
646134
645210
645211
645625
647541
648515
649288
648921
650852
649901
647579
645043
644478
644269
645486
647662
652174
662161
632402
733282
743397
636368
665565
653934
648781
646340
645354
645290
644468
645137
646972
647998
647052
647579
647138
645689
645089
644590
644408
645672
647935
652299
662918
633017
738976
757236
639446
668189
654665
649690
646957
645785
645570
644598
645245
647068
648099
647256
647661
647214
645779
645322
644924
644837
646225
648741
652901
665241
635705
750181
759215
648288
674141
656723
651649
648275
646711
646190
645013
645618
647390
648430
647859
647958
647489
646145
645954
645659
645769
647434
650511
654822
670931
643563
752081
765841
669266
686819
661919
655717
650987
648628
647530
646079
646617
648288
649294
649158
648759
648207
647166
647363
647214
647759
650129
654507
660653
682758
666647
756971
793367
720580
713876
676154
664633
656822
652718
650548
648621
648911
650387
651317
651649
650722
650095
649595
650286
650461
651818
655642
662832
674061
708543
717233
784668
916098
833819
771816
708368
683037
668680
661140
657021
654291
654094
655228
655958
656766
655272
654625
654914
656301
657222
660100
666804
679875
703627
763803
827938
917448
1.55292e+06
1.04547e+06
846704
750767
708444
686584
675416
669100
665966
665380
665888
666172
667312
665339
664849
665895
668261
670376
674907
684620
704627
744901
838034
1.03667e+06
1.54505e+06
2.99639e+06
1.44225e+06
1.00201e+06
827470
753790
719548
702721
693917
690219
689021
688481
688129
689277
687265
687133
688603
692110
696043
702784
716667
746221
811304
967162
1.37972e+06
2.93312e+06
5.86852e+06
2.41166e+06
1.46314e+06
1.03574e+06
860794
794586
765230
751604
745766
742986
740862
739793
740630
738982
739492
741591
746318
753570
765808
791057
848260
996056
1.35512e+06
2.32082e+06
5.71045e+06
5.68378e+06
4.82933e+06
3.42642e+06
1.82624e+06
1.17024e+06
1.00598e+06
940596
910916
897042
889410
885535
883114
884559
882771
884392
888061
895547
910492
940157
1.00111e+06
1.14964e+06
1.65173e+06
2.79387e+06
4.85597e+06
5.48818e+06
5.16555e+06
4.71327e+06
4.93984e+06
5.03569e+06
2.14145e+06
1.70818e+06
1.54413e+06
1.46482e+06
1.43191e+06
1.41477e+06
1.41264e+06
1.40118e+06
1.41544e+06
1.40438e+06
1.40921e+06
1.41763e+06
1.43607e+06
1.47325e+06
1.55513e+06
1.73028e+06
2.22859e+06
4.82681e+06
5.07023e+06
4.7636e+06
4.91136e+06
4.23159e+06
4.39587e+06
4.87676e+06
5.2736e+06
5.26346e+06
4.17529e+06
3.85912e+06
3.57885e+06
3.54473e+06
3.39539e+06
3.43554e+06
3.33572e+06
3.42529e+06
3.36651e+06
3.39489e+06
3.41692e+06
3.48605e+06
3.62241e+06
3.83301e+06
4.0305e+06
5.01224e+06
5.0985e+06
4.99393e+06
4.539e+06
4.48096e+06
3.85304e+06
3.97372e+06
4.75556e+06
5.50791e+06
6.90634e+06
8.22095e+06
9.61479e+06
9.51617e+06
1.00014e+07
9.80536e+06
1.00498e+07
9.88787e+06
1.00195e+07
9.90867e+06
9.99752e+06
9.88243e+06
9.91357e+06
9.64665e+06
9.5936e+06
8.61512e+06
7.15282e+06
5.58676e+06
4.94698e+06
4.15239e+06
4.15484e+06
3.12602e+06
3.72378e+06
4.93035e+06
5.65043e+06
6.897e+06
7.82348e+06
7.85159e+06
7.69949e+06
7.49177e+06
7.3706e+06
7.17573e+06
7.2204e+06
7.05211e+06
7.18469e+06
7.19225e+06
7.32218e+06
7.47447e+06
7.67363e+06
7.75798e+06
7.93239e+06
7.14722e+06
5.90805e+06
5.09222e+06
3.87571e+06
3.40943e+06
2.644e+06
3.53901e+06
4.8222e+06
5.36547e+06
5.91523e+06
6.12063e+06
5.85294e+06
5.84798e+06
5.85587e+06
5.8764e+06
5.89146e+06
5.90203e+06
5.90587e+06
5.90169e+06
5.89091e+06
5.87174e+06
5.85172e+06
5.84886e+06
5.86334e+06
6.01662e+06
6.04885e+06
5.63705e+06
5.01629e+06
3.46261e+06
2.49309e+06
1.44945e+06
2.53451e+06
3.935e+06
4.33655e+06
4.53188e+06
4.69313e+06
4.80527e+06
4.98679e+06
5.14501e+06
5.24345e+06
5.30415e+06
5.33426e+06
5.34942e+06
5.33635e+06
5.3093e+06
5.25235e+06
5.16654e+06
5.03402e+06
4.87996e+06
4.75421e+06
4.59338e+06
4.42227e+06
4.01928e+06
2.67416e+06
1.49771e+06
731967
1.72175e+06
2.77198e+06
3.22782e+06
3.43394e+06
3.70207e+06
4.05788e+06
4.37687e+06
4.58444e+06
4.70438e+06
4.78366e+06
4.82918e+06
4.84941e+06
4.83946e+06
4.80213e+06
4.73213e+06
4.62543e+06
4.44547e+06
4.1383e+06
3.74483e+06
3.44412e+06
3.23004e+06
2.77834e+06
1.76533e+06
720722
765594
1.25096e+06
1.88142e+06
2.30039e+06
2.62042e+06
3.01314e+06
3.47111e+06
3.8253e+06
4.03738e+06
4.17133e+06
4.26549e+06
4.32013e+06
4.3439e+06
4.33215e+06
4.28733e+06
4.20332e+06
4.0785e+06
3.87748e+06
3.51383e+06
3.01309e+06
2.59199e+06
2.2604e+06
1.8534e+06
1.19368e+06
734715
950076
1.06902e+06
1.31263e+06
1.7352e+06
2.0934e+06
2.54725e+06
2.97983e+06
3.30553e+06
3.5184e+06
3.66475e+06
3.76595e+06
3.82369e+06
3.84748e+06
3.83262e+06
3.78308e+06
3.68975e+06
3.54735e+06
3.33784e+06
3.00178e+06
2.54005e+06
2.05444e+06
1.6897e+06
1.2915e+06
1.03231e+06
932121
1.34071e+06
1.07557e+06
1.10257e+06
1.40058e+06
1.74446e+06
2.20024e+06
2.57245e+06
2.85408e+06
3.05584e+06
3.20233e+06
3.30084e+06
3.35852e+06
3.38207e+06
3.36327e+06
3.31053e+06
3.21692e+06
3.07158e+06
2.86603e+06
2.58113e+06
2.19997e+06
1.71087e+06
1.36777e+06
1.09341e+06
1.04981e+06
1.36649e+06
1.44298e+06
1.09794e+06
1.10283e+06
1.25092e+06
1.52366e+06
1.90069e+06
2.21803e+06
2.46447e+06
2.65119e+06
2.78798e+06
2.88751e+06
2.94085e+06
2.96334e+06
2.94359e+06
2.89158e+06
2.79719e+06
2.65906e+06
2.46885e+06
2.20968e+06
1.88831e+06
1.50875e+06
1.22681e+06
1.08154e+06
1.07281e+06
1.3828e+06
1.44209e+06
1.13442e+06
1.1117e+06
1.17754e+06
1.36927e+06
1.65748e+06
1.9161e+06
2.13665e+06
2.30426e+06
2.42946e+06
2.52196e+06
2.57192e+06
2.59237e+06
2.57434e+06
2.52521e+06
2.43628e+06
2.30934e+06
2.13842e+06
1.90635e+06
1.63887e+06
1.36075e+06
1.15601e+06
1.08953e+06
1.11117e+06
1.38474e+06
1.44611e+06
1.18731e+06
1.13228e+06
1.14005e+06
1.26292e+06
1.45826e+06
1.66997e+06
1.86207e+06
2.01213e+06
2.12417e+06
2.20659e+06
2.25018e+06
2.27011e+06
2.25246e+06
2.2073e+06
2.1262e+06
2.00996e+06
1.85823e+06
1.66106e+06
1.44304e+06
1.2577e+06
1.12466e+06
1.10913e+06
1.16176e+06
1.38863e+06
1.45653e+06
1.27065e+06
1.16716e+06
1.13209e+06
1.18251e+06
1.31296e+06
1.47745e+06
1.63632e+06
1.76502e+06
1.86283e+06
1.93501e+06
1.97339e+06
1.98891e+06
1.97442e+06
1.93324e+06
1.86082e+06
1.75983e+06
1.62837e+06
1.46714e+06
1.293e+06
1.17006e+06
1.11253e+06
1.14542e+06
1.2596e+06
1.41285e+06
1.49342e+06
1.43014e+06
1.20556e+06
1.12937e+06
1.12722e+06
1.19411e+06
1.31552e+06
1.44425e+06
1.55334e+06
1.63878e+06
1.70031e+06
1.73496e+06
1.74889e+06
1.73544e+06
1.69985e+06
1.63823e+06
1.55e+06
1.43958e+06
1.31144e+06
1.18168e+06
1.11164e+06
1.11179e+06
1.17644e+06
1.40636e+06
1.47212e+06
1.57687e+06
1.5419e+06
1.23576e+06
1.12007e+06
1.0901e+06
1.11217e+06
1.19491e+06
1.29251e+06
1.37896e+06
1.44926e+06
1.5036e+06
1.53139e+06
1.54454e+06
1.5316e+06
1.50177e+06
1.44704e+06
1.37368e+06
1.2834e+06
1.18581e+06
1.09841e+06
1.076e+06
1.10484e+06
1.20961e+06
1.47825e+06
1.5991e+06
1.75438e+06
1.58795e+06
1.25289e+06
1.10828e+06
1.05885e+06
1.05445e+06
1.09549e+06
1.16194e+06
1.23082e+06
1.28867e+06
1.3331e+06
1.35803e+06
1.36744e+06
1.35692e+06
1.32951e+06
1.28458e+06
1.22476e+06
1.15305e+06
1.08531e+06
1.03936e+06
1.04231e+06
1.08994e+06
1.23559e+06
1.55887e+06
1.73762e+06
1.81995e+06
1.62501e+06
1.28177e+06
1.09846e+06
1.02192e+06
1.00048e+06
1.01646e+06
1.06185e+06
1.10914e+06
1.15347e+06
1.1911e+06
1.21006e+06
1.21822e+06
1.20894e+06
1.1876e+06
1.14965e+06
1.10474e+06
1.05348e+06
1.00835e+06
989580
1.00791e+06
1.07954e+06
1.25869e+06
1.6377e+06
1.87254e+06
1.82303e+06
1.64425e+06
1.33347e+06
1.09872e+06
987841
954907
950890
975044
1.00614e+06
1.03817e+06
1.06619e+06
1.08303e+06
1.08996e+06
1.08187e+06
1.06374e+06
1.03394e+06
1.00018e+06
966831
940245
941901
971770
1.07904e+06
1.29644e+06
1.6821e+06
1.87265e+06
1.82275e+06
1.64565e+06
1.38669e+06
1.10213e+06
964623
909186
895589
904634
925323
945226
964366
975969
980543
974144
960200
939428
918134
893053
883137
896365
948002
1.08518e+06
1.36659e+06
1.69033e+06
1.86896e+06
1.81856e+06
1.64634e+06
1.49756e+06
1.11751e+06
944747
869522
845040
840589
849029
861249
875611
883618
887726
882296
872834
856486
843985
833853
836869
857869
930341
1.09743e+06
1.48337e+06
1.68796e+06
1.85435e+06
1.8108e+06
1.64511e+06
1.57885e+06
1.15226e+06
945499
840442
799243
789568
790116
795136
799834
804835
807100
803243
796319
788461
782654
778450
788420
828099
931548
1.12906e+06
1.62173e+06
1.68369e+06
1.82446e+06
1.78938e+06
1.63831e+06
1.57773e+06
1.19446e+06
950495
821543
764081
741850
735145
735253
738029
739219
740030
736907
734935
729826
729421
734427
753452
808317
941084
1.18925e+06
1.62485e+06
1.67257e+06
1.7769e+06
1.74691e+06
1.62145e+06
1.57355e+06
1.28268e+06
969644
819615
731410
699868
689055
684273
681507
680837
680924
678728
678549
678542
680849
689548
720855
799583
956580
1.28235e+06
1.61358e+06
1.64287e+06
1.74737e+06
1.672e+06
1.58623e+06
1.56012e+06
1.38758e+06
1.01015e+06
824724
718619
671296
647796
639088
635744
633221
632469
632027
633147
636361
643300
660752
701745
803170
992775
1.4463e+06
1.58904e+06
1.59636e+06
1.70847e+06
1.65529e+06
1.53611e+06
1.52211e+06
1.38631e+06
1.0721e+06
832153
717204
644520
614731
601810
594068
591271
590199
589619
591155
596324
606182
629747
694806
819264
1.06838e+06
1.44622e+06
1.5366e+06
1.55824e+06
1.65048e+06
1.62277e+06
1.50567e+06
1.44551e+06
1.38063e+06
1.20168e+06
854556
720461
634165
589374
569666
560596
555547
553937
554613
558509
566919
585093
621430
697321
843711
1.20006e+06
1.42813e+06
1.46082e+06
1.53257e+06
1.63877e+06
1.57643e+06
1.48819e+06
1.38854e+06
1.36284e+06
1.24851e+06
899091
732678
634822
573738
547433
531179
525380
523452
524244
528370
539432
564162
621744
706506
892795
1.26382e+06
1.38923e+06
1.39584e+06
1.51373e+06
1.61552e+06
1.5606e+06
1.47465e+06
1.34002e+06
1.31956e+06
1.24409e+06
974757
754516
637685
571081
530796
510761
501144
498618
499908
507485
524645
559884
626715
731235
995923
1.25832e+06
1.31303e+06
1.34924e+06
1.48917e+06
1.56975e+06
1.52956e+06
1.44921e+06
1.31201e+06
1.25679e+06
1.232e+06
1.13425e+06
803484
650363
572635
523939
495067
483439
478672
482395
492090
513949
560868
636764
770392
1.11867e+06
1.23533e+06
1.24766e+06
1.315e+06
1.46016e+06
1.53903e+06
1.47327e+06
1.40858e+06
1.28464e+06
1.21169e+06
1.2035e+06
1.13381e+06
903137
680478
579003
524394
484739
466747
460351
465433
479498
514103
565221
661265
849089
1.11519e+06
1.1873e+06
1.20344e+06
1.29147e+06
1.42983e+06
1.49635e+06
1.44965e+06
1.37565e+06
1.25474e+06
1.17407e+06
1.14623e+06
1.12135e+06
1.02874e+06
736756
593693
526419
484820
461906
453285
458839
479841
516806
580276
715105
1.01182e+06
1.10534e+06
1.12709e+06
1.164e+06
1.26259e+06
1.39068e+06
1.44137e+06
1.41428e+06
1.35011e+06
1.23716e+06
1.1416e+06
1.09793e+06
1.09382e+06
1.0282e+06
856283
628243
535864
486627
462359
453858
459195
480877
523373
610544
816835
1.01293e+06
1.0789e+06
1.08089e+06
1.13859e+06
1.24231e+06
1.35436e+06
1.4105e+06
1.37183e+06
1.3148e+06
1.22468e+06
1.12053e+06
1.06056e+06
1.04093e+06
1.02065e+06
954770
702632
560924
493184
464634
456065
461034
484855
540258
675202
937320
1.00715e+06
1.02891e+06
1.0495e+06
1.11803e+06
1.22486e+06
1.31832e+06
1.36766e+06
1.32207e+06
1.27393e+06
1.21099e+06
1.10909e+06
1.02807e+06
996574
998876
954725
849839
613874
508436
470789
461685
467060
497414
579797
813289
946428
991091
988496
1.02086e+06
1.10471e+06
1.2126e+06
1.27244e+06
1.30292e+06
1.22249e+06
1.21472e+06
1.18501e+06
1.10269e+06
1.0073e+06
963185
958733
949565
912456
730991
544427
486812
475426
481942
526916
662207
887703
942660
958160
961210
1.00755e+06
1.09825e+06
1.18817e+06
1.2099e+06
1.20576e+06
1.08352e+06
1.1324e+06
1.13287e+06
1.08931e+06
1.00324e+06
943516
930180
936042
916377
848607
622768
523416
508119
517264
592606
831309
910774
932135
931666
941021
1.00328e+06
1.08582e+06
1.13914e+06
1.12726e+06
1.07015e+06
71197.6
71050.1
71047.1
71033.2
71175
71134
71076.1
70941.9
70813.7
70725.3
70677.4
70654
70643.5
70639.2
70637.6
70637.1
70637
70636.9
70636.9
70636.9
70636.8
70636.5
70636.1
70635.8
70635.6
70636.9
70630.1
70644.1
70607.5
70666.7
71188.5
71040.6
70994.6
70993.2
71149.3
71139.3
71108
70976.9
70840.3
70740.6
70685
70657.4
70644.8
70639.6
70637.7
70637.1
70637
70636.9
70636.9
70636.9
70636.7
70636.4
70636
70635.9
70635.7
70637.1
70631
70643.5
70621
70653.9
71179.8
71021.5
70945.4
70969.7
71146
71160.3
71147.7
71006.1
70858.8
70750.1
70689.1
70659
70645.3
70639.7
70637.7
70637.1
70637
70636.9
70636.9
70636.8
70636.7
70636.3
70636
70636
70636
70637.1
70632.9
70641.8
70629.4
70646.2
71172.6
70983.5
70901.7
70963.3
71144.3
71191.9
71187.8
71030.6
70873.9
70757.6
70692.2
70659.9
70645.4
70639.7
70637.7
70637.1
70637
70636.9
70636.9
70636.8
70636.6
70636.3
70636
70636.1
70636.3
70637.1
70634.6
70640.3
70632.8
70642.5
71171.1
70936.2
70868.6
70964.9
71162.1
71221.8
71219.1
71046
70883.5
70761.8
70693.4
70660.1
70645.4
70639.7
70637.7
70637.1
70637
70636.9
70636.9
70636.8
70636.6
70636.3
70636
70636.2
70636.5
70637
70635.7
70639.3
70634.8
70640.2
71171
70893.4
70853.3
70972.6
71194.8
71247.8
71238.9
71048.7
70884.9
70761.8
70693.3
70659.9
70645.3
70639.6
70637.6
70637.1
70637
70636.9
70636.9
70636.8
70636.7
70636.3
70636.1
70636.2
70636.6
70637
70636.5
70638.7
70636.1
70638.9
71166.1
70858.8
70854
71004.1
71221.1
71260.4
71243.8
71045.2
70883
70760.6
70692.5
70659.5
70645
70639.4
70637.5
70637.1
70637
70636.9
70636.9
70636.8
70636.7
70636.4
70636.1
70636.2
70636.6
70637
70637
70638.4
70636.9
70638
71160.3
70832.9
70863
71066.8
71237.1
71265.7
71242.3
71037.3
70879.2
70758.3
70691.4
70658.7
70644.5
70639.1
70637.5
70637
70637
70636.9
70636.9
70636.9
70636.7
70636.5
70636.2
70636.2
70636.6
70637
70637.3
70638.2
70637.2
70637.5
71143.2
70816.5
70872.8
71116.8
71244.9
71269.1
71236.4
71023.1
70872.4
70754.6
70689.2
70657.3
70643.6
70638.8
70637.4
70637
70636.9
70636.9
70636.9
70636.9
70636.8
70636.6
70636.4
70636.3
70636.5
70637
70637.3
70638
70637.4
70637.4
71137.9
70805.2
70890.2
71160.4
71249.3
71268.2
71223.2
71001.8
70861.2
70748.2
70685.6
70655.2
70642.9
70638.6
70637.3
70637
70636.9
70636.9
70636.9
70636.9
70636.8
70636.7
70636.5
70636.4
70636.5
70637
70637.3
70637.7
70637.5
70637.3
71145.8
70821.3
70928.5
71191.4
71249.9
71248
71195.2
70977.9
70845.9
70738.8
70681
70653.5
70642.3
70638.4
70637.3
70637
70636.9
70636.9
70636.9
70636.9
70636.9
70636.8
70636.7
70636.5
70636.5
70636.9
70637.2
70637.6
70637.5
70637.4
71165.2
70897.9
70949.3
71208.4
71245
71209.3
71161
70949.8
70829.1
70730.2
70677.4
70652.2
70641.9
70638.3
70637.2
70637
70636.9
70636.9
70636.9
70636.9
70636.9
70636.8
70636.8
70636.7
70636.6
70636.8
70637
70637.4
70637.8
70638.4
71202.8
70970.3
70999.2
71234.8
71219.8
71162.3
71120.5
70921.1
70813
70722.7
70674.2
70650.9
70641.4
70638.1
70637.2
70637
70636.9
70636.9
70636.9
70636.9
70636.9
70636.9
70636.9
70636.8
70636.7
70636.6
70637.2
70637.1
70637.5
70637.7
71252.8
71129.2
71142
71334
71226.6
71115.9
71079
70894.3
70797.7
70715.4
70671.1
70649.7
70641
70638
70637.2
70637
70636.9
70636.9
70636.9
70636.9
70636.9
70636.9
70636.9
70636.9
70636.8
70636.5
70636.8
70636.8
70636.8
70637.1
71375
71508.3
71584
71653.6
71402
71149.7
71051
70870.9
70782.8
70708.2
70668
70648.5
70640.6
70637.9
70637.1
70637
70636.9
70636.9
70636.9
70636.9
70636.9
70636.9
70636.9
70636.9
70636.9
70636.8
70636.5
70636.7
70636.7
70637.1
71812.2
72559.8
73103.5
73022.5
72181.1
71431.8
71117.5
70867.4
70770.1
70701.2
70664.8
70647.3
70640.2
70637.8
70637.1
70637
70636.9
70636.9
70636.9
70636.9
70636.9
70636.9
70636.9
70637
70637
70637
70636.9
70636.7
70636.9
70637.1
73238.5
75490.3
77603.6
78226.4
75951.7
72906.1
71490.1
70950.3
70777.7
70696
70661.8
70646.1
70639.8
70637.6
70637.1
70637
70636.9
70636.9
70636.9
70636.9
70636.9
70636.9
70636.9
70637
70637
70637
70637
70637
70637
70637.1
77251.8
82890.2
91094.6
97910.7
92192.3
79608.1
73484.2
71352.3
70855.5
70705.9
70660.5
70645
70639.4
70637.5
70637.1
70637
70636.9
70636.9
70636.9
70636.9
70636.9
70636.9
70636.9
70637
70637
70637
70637
70637
70637
70637.1
87894.4
89860
95937.9
109343
120716
112280
82503.2
73380.4
71206.4
70765.4
70668.3
70644.9
70639
70637.4
70637
70636.9
70636.9
70636.9
70636.9
70636.9
70636.9
70636.9
70636.9
70637
70637
70637
70637
70637
70637
70637.1
93279.1
89662.4
92790.5
107630
124502
137019
125545
82377.8
72791.8
71014.8
70706.7
70649.4
70639.2
70637.4
70637
70636.9
70636.9
70636.9
70636.9
70636.9
70636.9
70636.9
70636.9
70637
70637
70637
70637
70637
70637.1
70637.1
90558.5
83186.5
83715.3
95617.3
121858
139808
151067
120988
79320.7
72009.4
70851.4
70669.5
70641.3
70637.5
70637
70636.9
70636.9
70636.9
70636.9
70636.9
70636.9
70636.9
70637
70637
70637
70637
70637
70637.1
70637.1
70637.1
90060.7
76885.1
74423.8
79752.7
112314
137767
155168
157572
107131
75703.4
71364.3
70738.8
70649.8
70638.2
70637
70636.9
70636.9
70636.9
70636.9
70636.9
70636.9
70636.9
70637
70637
70637
70637
70637.1
70637.1
70637.1
70637.1
61957.7
59037.1
63191.8
69757.9
103463
127446
153100
171337
156245
87912.1
73040.6
70948.7
70677.5
70641.1
70637.2
70637
70636.9
70636.9
70636.9
70636.9
70636.9
70636.9
70637
70637
70637
70637
70637.1
70637.1
70637.1
70637.1
67680.8
59790.3
64553.6
67632.8
83127
119108
148395
175509
177491
127066
77588.4
71560.3
70748.6
70649.9
70638
70637
70636.9
70636.9
70636.9
70636.9
70636.9
70636.9
70637
70637
70637
70637
70637.1
70637.1
70637.1
70637.1
40179.3
55054
55904.8
55406.8
73355.9
115067
146331
176585
190948
171636
89366
73082
70921
70669.8
70639.9
70637.1
70636.9
70636.9
70636.9
70636.9
70636.9
70636.9
70637
70637
70637
70637.1
70637.1
70637.1
70637.1
70637.2
70666.7
70607.5
70644.1
70630.1
70636.9
70635.6
70635.8
70636.1
70636.5
70636.8
70636.9
70636.9
70636.9
70637
70637.1
70637.6
70639.2
70643.5
70654
70677.4
70725.2
70813.6
70941.7
71075.9
71133.8
71174.9
71033.1
71047
71050.1
71197.8
70653.9
70621
70643.5
70631
70637.1
70635.7
70635.9
70636
70636.4
70636.7
70636.9
70636.9
70636.9
70637
70637.1
70637.7
70639.6
70644.8
70657.4
70685
70740.5
70840.2
70976.8
71107.9
71139.2
71149.3
70993
70994.5
71040.5
71188.7
70646.2
70629.4
70641.8
70632.9
70637.1
70636
70636
70636
70636.3
70636.7
70636.8
70636.9
70636.9
70637
70637.1
70637.7
70639.7
70645.3
70659
70689.1
70750.1
70858.7
71006.1
71147.8
71160.3
71145.9
70969.5
70945.4
71021.4
71180
70642.5
70632.8
70640.3
70634.6
70637.1
70636.3
70636.1
70636
70636.3
70636.6
70636.8
70636.9
70636.9
70637
70637.1
70637.7
70639.7
70645.4
70659.9
70692.1
70757.6
70873.9
71030.6
71187.9
71191.9
71144.2
70963.1
70901.7
70983.4
71172.6
70640.2
70634.8
70639.3
70635.7
70637
70636.5
70636.2
70636
70636.3
70636.6
70636.8
70636.9
70636.9
70637
70637.1
70637.7
70639.7
70645.4
70660.1
70693.4
70761.8
70883.6
71046
71219.2
71221.8
71162.1
70964.8
70868.4
70936
71171
70638.9
70636.1
70638.7
70636.5
70637
70636.6
70636.2
70636.1
70636.3
70636.7
70636.8
70636.9
70636.9
70637
70637.1
70637.6
70639.6
70645.3
70659.9
70693.3
70761.9
70885
71048.7
71238.9
71247.7
71194.8
70972.7
70853.2
70893.2
71171
70638
70636.9
70638.4
70637
70637
70636.6
70636.2
70636.1
70636.4
70636.7
70636.8
70636.9
70636.9
70637
70637.1
70637.5
70639.4
70645
70659.5
70692.5
70760.6
70883.1
71045.3
71243.8
71260.2
71221.1
71004.1
70853.8
70858.6
71166.2
70637.5
70637.2
70638.2
70637.3
70637
70636.6
70636.2
70636.2
70636.5
70636.7
70636.9
70636.9
70636.9
70637
70637
70637.5
70639.1
70644.5
70658.7
70691.4
70758.3
70879.2
71037.3
71242.3
71265.7
71237.1
71066.9
70863
70833
71160.4
70637.4
70637.4
70638
70637.3
70637
70636.5
70636.3
70636.4
70636.6
70636.8
70636.9
70636.9
70636.9
70636.9
70637
70637.4
70638.8
70643.6
70657.4
70689.2
70754.6
70872.4
71023
71236.5
71269.1
71244.9
71116.9
70872.7
70816.3
71143.1
70637.3
70637.5
70637.7
70637.3
70637
70636.5
70636.4
70636.5
70636.7
70636.8
70636.9
70636.9
70636.9
70636.9
70637
70637.3
70638.6
70642.9
70655.2
70685.6
70748.2
70861
71001.6
71223.2
71268
71249.4
71160.4
70890.2
70805.2
71138
70637.4
70637.5
70637.6
70637.2
70636.9
70636.5
70636.5
70636.7
70636.8
70636.9
70636.9
70636.9
70636.9
70636.9
70637
70637.3
70638.4
70642.3
70653.5
70681
70738.8
70845.9
70977.8
71195.1
71247.6
71249.8
71191.2
70928.5
70821.4
71145.6
70638.4
70637.8
70637.4
70637
70636.8
70636.6
70636.7
70636.8
70636.8
70636.9
70636.9
70636.9
70636.9
70636.9
70637
70637.2
70638.3
70641.9
70652.2
70677.4
70730.2
70829.1
70949.8
71160.9
71209.2
71245.2
71208.4
70949.1
70897.9
71165
70637.7
70637.5
70637.1
70637.2
70636.6
70636.7
70636.8
70636.9
70636.9
70636.9
70636.9
70636.9
70636.9
70636.9
70637
70637.2
70638.1
70641.4
70650.9
70674.2
70722.7
70813
70921.2
71120.5
71162.4
71219.9
71234.7
70999.2
70970.5
71203.2
70637.1
70636.8
70636.8
70636.8
70636.5
70636.8
70636.9
70636.9
70636.9
70636.9
70636.9
70636.9
70636.9
70636.9
70637
70637.2
70638
70641
70649.7
70671.1
70715.4
70797.7
70894.3
71079
71115.9
71226.8
71334.2
71142.4
71129.5
71252.9
70637.1
70636.7
70636.7
70636.5
70636.8
70636.9
70636.9
70636.9
70636.9
70636.9
70636.9
70636.9
70636.9
70636.9
70637
70637.1
70637.9
70640.6
70648.5
70668
70708.2
70782.8
70870.9
71051.1
71149.9
71402.5
71654.3
71584.9
71508.7
71375
70637.1
70636.9
70636.7
70636.9
70637
70637
70637
70636.9
70636.9
70636.9
70636.9
70636.9
70636.9
70636.9
70637
70637.1
70637.8
70640.2
70647.3
70664.8
70701.2
70770.2
70867.5
71117.8
71432.4
72182.5
73024.3
73105.4
72560.2
71812.3
70637.1
70637
70637
70637
70637
70637
70637
70636.9
70636.9
70636.9
70636.9
70636.9
70636.9
70636.9
70637
70637.1
70637.6
70639.8
70646.1
70661.8
70696.1
70777.7
70950.6
71490.8
72908
75955
78228.5
77606
75488.9
73237.6
70637.1
70637
70637
70637
70637
70637
70637
70636.9
70636.9
70636.9
70636.9
70636.9
70636.9
70636.9
70637
70637.1
70637.5
70639.4
70645
70660.5
70706
70855.7
71352.9
73485.6
79608.1
92195.4
97895.1
91087.7
82879.7
77244.3
70637.1
70637
70637
70637
70637
70637
70637
70636.9
70636.9
70636.9
70636.9
70636.9
70636.9
70636.9
70636.9
70637
70637.4
70639
70644.9
70668.4
70765.6
71207
73381.3
82498.3
112227
120627
109300
95912
89832.9
87857
70637.1
70637.1
70637
70637
70637
70637
70637
70636.9
70636.9
70636.9
70636.9
70636.9
70636.9
70636.9
70636.9
70637
70637.4
70639.2
70649.4
70706.8
71015.3
72792.9
82373.5
125470
136883
124384
107586
92752.6
89630.3
93214.2
70637.1
70637.1
70637.1
70637
70637
70637
70637
70637
70636.9
70636.9
70636.9
70636.9
70636.9
70636.9
70636.9
70637
70637.5
70641.3
70669.6
70851.6
72009.7
79314.5
120902
150880
139655
121733
95608.8
83692.9
83170.7
90480.9
70637.1
70637.1
70637.1
70637.1
70637
70637
70637
70637
70636.9
70636.9
70636.9
70636.9
70636.9
70636.9
70636.9
70637
70638.2
70649.8
70739
71365
75702.3
107066
157402
154962
137611
112230
79781.3
74417.1
76891.1
89958.8
70637.1
70637.1
70637.1
70637.1
70637
70637
70637
70637
70636.9
70636.9
70636.9
70636.9
70636.9
70636.9
70637
70637.2
70641.1
70677.6
70949.2
73042.6
87923.8
156083
171071
152856
127287
103522
69779.6
63263.8
59087.1
61972.4
70637.1
70637.1
70637.1
70637.1
70637
70637
70637
70637
70636.9
70636.9
70636.9
70636.9
70636.9
70636.9
70637
70638
70649.9
70748.8
71561.8
77591.9
127003
177218
175173
148124
118833
83209.5
67593.6
64435.9
59827.9
67528.5
70637.2
70637.1
70637.1
70637.1
70637.1
70637
70637
70637
70636.9
70636.9
70636.9
70636.9
70636.9
70636.9
70637.1
70639.9
70669.9
70921.8
73087.2
89414.6
171474
190637
176187
146035
114700
73466.2
55324.6
55886.9
55171
40278
70637.1
70637
70637
70637
70637
70637
70637
70637
70637
70637
70637
70637
70637
70637
70637
70637
70637
70637
70637
70637
70637
70637
70637
70637
70637
70637
70637
70637
70637
70637
70637
70637
70637
70637
70637
70637
70637
70637
70637
70637
70637
70637
70637
70637
70637
70637
70637
70637
70637
70637
70637
70637
70637
70637
70637
70637
70637
70637
70637
70637
70637
70637
70637
70637
70637
70637
70637
70637
70637
70637
70637
70637
70637
70637
70637
70637
70637
70637
70637
70637
70637
70637
70637
70637
70637
70637
70637
70637
70637
70637
70637
70637
70637
70637
70637
70637
70637
70637
70637
70637
70637
70637
70637
70637
70637
70637
70637
70637
70637
70637
70637
70637
70637
70637.1
70637.1
70637.1
70637.1
70637.1
70637.1
70637.1
70637.1
70637.1
70637.1
70637.2
70637.2
70637
70637
70637
70637
70637
70637
70637
70637
70637
70637
70637
70637
70637
70637
70637
70637
70637
70637
70637
70637
70637
70637
70637
70637
70637
70637
70637
70637
70637
70637
70637
70637
70637
70637
70637
70637
70637
70637
70637
70637
70637
70637
70637
70637
70637
70637
70637
70637
70637
70637
70637
70637
70637
70637
70637
70637
70637
70637
70637
70637
70637
70637
70637
70637
70637
70637
70637
70637
70637
70637
70637
70637
70637
70637
70637
70637
70637
70637
70637
70637
70637
70637
70637
70637
70637
70637
70637
70637
70637
70637
70637
70637
70637
70637
70637
70637
70637
70637
70637
70637
70637
70637
70637
70637
70637
70637
70637
70637
70637
70637
70637
70637
70637
70637
70637
70637
70637
70637
70637
70637
70637
70637.1
70637.1
70637.1
70637.1
70637
70637
70637
70637
70637
70637
70637
70637
70637
70637
70637
70637
70637
70637
70637
70637
70637
70637
70637
70637
70637
70637
70637
70637
70637
70637
70637
70637
70637
70637
70637
70637
70637
70637
70637
70637
70637
70637
70637
70637
70637
70637
70637
70637
70637
70637
70637
70637
70637
70637
70637
70637
70637
70637
70637
70637
70637
70637
70637
70637
70637
70637
70637
70637
70637
70637
70637
70637
70637
70637
70637
70637
70637
70637
70637
70637
70637
70637
70637
70637
70637
70637
70637
70637
70637
70637
70637
70637
70637
70637
70637
70637
70637
70637
70637
70637
70637
70637
70637
70637
70637
70637
70637
70637
70637
70637
70637
70637
70637
70637
70637
70637
70637
70637
70637
70637
70637
70637
70637
70637
70637
70637.1
70637.1
70637.1
70637.1
70637
70637
70637
70637
70637
70637
70637
70637
70637
70637
70637
70637
70637
70637
70637
70637
70637
70637
70637
70637
70637
70637
70637
70637
70637
70637
70637
70637
70637
70637
70637
70637
70637
70637
70637
70637
70637
70637
70637
70637
70637
70637
70637
70637
70637
70637
70637
70637
70637
70637
70637
70637
70637
70637
70637
70637
70637
70637
70637
70637
70637
70637
70637
70637
70637
70637
70637
70637
70637
70637
70637
70637
70637
70637
70637
70637
70637
70637
70637
70637
70637
70637
70637
70637
70637
70637
70637
70637
70637
70637
70637
70637
70637
70637
70637
70637
70637
70637
70637
70637
70637
70637
70637
70637
70637
70637
70637
70637
70637
70637
70637
70637
70637
70637
70637
70637
70637
70637
70637
70637
70637
70637.1
70637.1
70637.1
70637.1
70637
70637
70637
70637
70637
70637
70637
70637
70637
70637
70637
70637
70637
70637
70637
70637
70637
70637
70637
70637
70637
70637
70637
70637
70637
70637
70637
70637
70637
70637
70637
70637
70637
70637
70637
70637
70637
70637
70637
70637
70637
70637
70637
70637
70637
70637
70637
70637
70637
70637
70637
70637
70637
70637
70637
70637
70637
70637
70637
70637
70637
70637
70637
70637
70637
70637
70637
70637
70637
70637
70637
70637
70637
70637
70637
70637
70637
70637
70637
70637
70637
70637
70637
70637
70637
70637
70637
70637
70637
70637
70637
70637
70637
70637
70637
70637
70637
70637
70637
70637
70637
70637
70637
70637
70637
70637
70637
70637
70637
70637
70637
70637
70637
70637
70637
70637
70637
70637
70637
70637
70637
70637
70637.1
70637.1
70637.1
70637
70637
70637
70637
70637
70637
70637
70637
70637
70637
70637
70637
70637
70637
70637
70637
70637
70637
70637
70637
70637
70637
70637
70637
70637
70637
70637
70637
70637
70637
70637
70637
70637
70637
70637
70637
70637
70637
70637
70637
70637
70637
70637
70637
70637
70637
70637
70637
70637
70637
70637
70637
70637
70637
70637
70637
70637
70637
70637
70637
70637
70637
70637
70637
70637
70637
70637
70637
70637
70637
70637
70637
70637
70637
70637
70637
70637
70637
70637
70637
70637
70637
70637
70637
70637
70637
70637
70637
70637
70637
70637
70637
70637
70637
70637
70637
70637
70637
70637
70637
70637
70637
70637
70637
70637
70637
70637
70637
70637
70637
70637
70637
70637
70637
70637
70637
70637
70637
70637
70637
70637
70637
70637
70637
70637
70637
70637
70637
70637
70637
70637
70637
70637
70637
70637
70637
70637
70637
70637
70637
70637
70637
70637
70637
70637
70637
70637
70637
70637
70637
70637
70637
70637
70637
70637
70637
70637
70637
70637
70637
70637
70637
70637
70637
70637
70637
70637
70637
70637
70637
70637
70637
70637
70637
70637
70637
70637
70637
70637
70637
70637
70637
70637
70637
70637
70637
70637
70637
70637
70637
70637
70637
70637
70637
70637
70637
70637
70637
70637
70637
70637
70637
70637
70637
70637
70637
70637
70637
70637
70637
70637
70637
70637
70637
70637
70637
70637
70637
70637
70637
70637
70637
70637
70637
70637
70637
70637
70637
70637
70637
70637
70637
70637
70637
70637
70637
70637
70637
70637
70637
70637
70637
70637
70637
70637
70637
70637
70637
70637
70637
70637
70637
70637
70637
70637
70637
70637
70637
70637
70637
70637
70637
70637
70637
70637
70637
70637
70637
70637
70637
70637
70637
70637
70637
70637
70637
70637
70637
70637
70637
70637
70637
70637
70637
70637
70637
70637
70637
70637
70637
70637
70637
70637
70637
70637
70637
70637
70637
70637
70637
70637
70637
70637
70637
70637