/*--------------------------------*- C++ -*----------------------------------*\
| =========                 |                                                 |
| \\      /  F ield         | OpenFOAM: The Open Source CFD Toolbox           |
|  \\    /   O peration     | Version:  2112                                  |
|   \\  /    A nd           | Website:  www.openfoam.com                      |
|    \\/     M anipulation  |                                                 |
\*---------------------------------------------------------------------------*/
FoamFile
{
    version     2.0;
    format      ascii;
    arch        "LSB;label=32;scalar=64";
    class       volScalarField;
    location    "0.00764";
    object      T;
}
// * * * * * * * * * * * * * * * * * * * * * * * * * * * * * * * * * * * * * //

dimensions      [0 0 0 1 0 0 0];

internalField   nonuniform List<scalar> 
13875
(
1411.99
1535.58
1482.39
1487.63
1482.04
1484.14
1484.22
1483.59
1484.84
1484.8
1484.05
1484.13
1483.54
1483.92
1483.85
1483.86
1483.44
1484.72
1484.87
1483.12
1481.88
1487.68
1480.54
1532.59
1397.28
1307
1356.18
1318.88
1321.94
1316.56
1318.19
1321.99
1323.02
1324.25
1324.03
1323.2
1323.09
1318.07
1317.68
1318.37
1322.76
1322.95
1323.47
1322.31
1317.82
1316.7
1321.9
1319.6
1356.15
1304.19
1307.21
1340.06
1314.29
1311.88
1305.46
1306
1305.75
1305.36
1306.66
1306.96
1305.09
1305.87
1303.78
1304.02
1303.9
1305.79
1303.9
1305.91
1306.04
1305.1
1304.86
1311.06
1311.35
1336.42
1297.84
1317.35
1344.79
1314.59
1308.52
1305.93
1306.18
1304.79
1304.26
1304.72
1304.39
1303
1303.66
1303.88
1304.07
1304.04
1303.44
1302.42
1303.47
1304.2
1305.5
1305.35
1307.69
1313.96
1343.78
1311.53
1329.52
1342.14
1315.81
1312.43
1305.2
1306.09
1305.46
1304.69
1305.02
1304.43
1302.95
1303.5
1303.76
1304.22
1303.82
1303.28
1302.51
1303.97
1305.2
1304.89
1304.75
1311.75
1311.99
1338.29
1315.69
1332.22
1351.18
1318.85
1310.02
1307.85
1306.95
1305.21
1304.61
1304.94
1304.52
1303.18
1303.83
1304.11
1304.5
1304.29
1303.54
1302.63
1303.51
1304.26
1306.54
1307.27
1308.43
1319.02
1349.01
1326.11
1339.02
1360.52
1329.04
1317.71
1308.41
1308.43
1307.06
1305.74
1305.72
1304.58
1303.46
1303.79
1304.34
1304.82
1304.23
1303.57
1303.16
1304.57
1306.19
1306.58
1307.79
1317.61
1325.69
1358.14
1321.55
1359.8
1384.8
1344.27
1321.59
1316.57
1310.85
1307.35
1305.9
1305.85
1304.96
1304.09
1304.59
1305.1
1305.5
1305.21
1304.17
1303.74
1304.93
1306.16
1309.92
1315.27
1320.37
1341.49
1380.92
1350.51
1537.41
1508.49
1387.14
1350.89
1322.55
1316.69
1311.27
1308.79
1307.79
1306.44
1305.49
1305.72
1306.37
1306.83
1306.32
1305.65
1305.62
1307.28
1310.53
1314.26
1321.32
1349.27
1382.68
1505.61
1521.63
1835.2
1574.81
1427.45
1358.54
1338.48
1321.28
1314.25
1311.74
1310.69
1309.32
1308.37
1308.44
1309.05
1309.51
1309.17
1308.6
1308.84
1310.93
1314.09
1320.53
1336.97
1357.04
1424.77
1566.5
1826.65
2507.58
1804.78
1517.15
1405.1
1350.14
1331.97
1325.71
1319.17
1316.87
1314.87
1313.92
1313.77
1314.3
1314.85
1314.71
1314.64
1315.18
1317.7
1326.06
1330.03
1348.67
1419.43
1502.07
1797.71
2428.88
2812.65
2301.14
1734.22
1462.5
1426.74
1360.57
1339.44
1333.06
1329.45
1326.85
1325.85
1325.48
1325.74
1326.29
1326.38
1326.99
1328.28
1331.78
1339.81
1370.32
1405.12
1456.88
1730.99
2306.19
2837.05
2786.82
2654.65
2350.13
2204.66
1523.44
1413.97
1396.08
1373.86
1363.96
1357.44
1354.92
1353.74
1353.56
1354.16
1354.89
1357.73
1363.8
1374.65
1400.33
1421.73
1567.24
2234.84
2244.88
2686.99
2766.34
2723.06
2661.49
2744.44
2788.4
2048.79
1824.76
1521.3
1477.75
1459.11
1447.59
1444.01
1442.27
1442.1
1442.8
1443.94
1448.41
1459.51
1479.22
1540.19
1910.76
2100.48
2799.11
2792.38
2703.07
2701.38
2582.03
2637.7
2685.37
2687.94
2588.06
2362.72
2026.15
1966.22
1866.68
1767.74
1733.4
1721.88
1718.35
1719.92
1726.56
1750.63
1842.61
1963.53
1985.84
2412.26
2633.63
2734.4
2677.36
2651.5
2625.49
2499.87
2537.09
2629.21
2685.52
2657.26
2687.65
2876.72
2948
2944.17
3045.57
3128.51
3151.45
3161.6
3156.05
3138.29
3073.7
2913.9
2943.44
2905.53
2717.19
2657.32
2707.27
2627.06
2558.4
2532.9
2313.5
2396.54
2475.36
2530.58
2606.43
2734.86
3039.69
3416.34
3595.99
3684.69
3697.52
3690.2
3687.4
3690.97
3700.12
3703.54
3605.71
3430.31
3072.9
2746.72
2617.76
2568.42
2467.79
2403.28
2329.31
2024.6
2150.05
2303.6
2613.75
2786.52
2831.45
2966.63
3319.75
3537.51
3644.48
3673.97
3671.78
3670.99
3673.6
3675.54
3651.03
3510.59
3300
2956.33
2822.53
2800.21
2576.17
2272.64
2143.43
2024.92
1810.38
1874.15
2007.72
2246.86
2737.42
2838.69
2879.35
3108.92
3360.58
3498
3539.31
3553.85
3557.23
3557.47
3545.79
3508.19
3363.79
3119.53
2912.76
2925.52
2714.43
2221.02
2009.53
1880.52
1814.14
2439.15
2326.25
2082.9
2180.15
2509.52
2687.77
2696.27
2843.45
3078.62
3279.51
3385.62
3426.73
3437.05
3429.69
3390.92
3280.44
3068.79
2851.8
2725.43
2711.72
2499.42
2212.06
2120.79
2333.05
2438.9
3296.74
3403.01
2725.81
2291.89
2384.62
2528.4
2546.88
2661.19
2888.78
3109.94
3249.69
3304.67
3313.2
3303.89
3244.61
3091.19
2858.76
2659.01
2550.71
2540.86
2365.36
2313.79
2785.17
3471.22
3300.3
3661.59
3579.51
2774.71
2194.81
2210.79
2362.46
2417.13
2523.35
2736.97
2966.91
3117.46
3176.24
3187.75
3172.02
3102.49
2935.77
2704.29
2520.81
2414.4
2367.23
2191.78
2225.8
2848.88
3613.68
3690.74
3490.87
3063.53
2454.55
2028.23
2065.46
2232.42
2308.7
2417.49
2612.05
2832.38
2988.99
3053.74
3063.44
3048.31
2974.89
2805.8
2584.19
2418.17
2295.73
2231.18
2041.68
2041.95
2446.99
3059.58
3512.95
3516.93
2913.3
2204.85
1875.94
1976.55
2133.77
2207.43
2315.79
2505.62
2720.84
2867.85
2929.72
2943.89
2924.65
2853.23
2693.29
2479.86
2317.49
2202.17
2127.81
1946.35
1877.12
2220.7
2927.89
3531.98
3440.81
2739.38
2057.36
1801.31
1937.84
2066.21
2116.61
2233.26
2414.04
2615.54
2758.28
2819.24
2828.21
2811.87
2741.14
2586.23
2383.87
2229.81
2114.57
2060.34
1907.63
1797.94
2082.42
2796.19
3465.72
3412.66
2710.12
2006.9
1810.58
1909.91
1993.21
2039.5
2149.32
2325.96
2519.41
2650.99
2705.81
2720.46
2701.41
2637.16
2494.4
2301.61
2147.99
2044.8
1994.99
1883.3
1810.25
2017.82
2725.33
3414.52
3341.7
2570.77
1941.62
1815
1889.31
1952.26
1973.32
2089.51
2255.67
2431.5
2553.78
2608.26
2616.81
2602.54
2540.28
2408.95
2229.63
2083.08
1973.64
1955.28
1873.27
1810.14
1953.89
2590.82
3358.17
3313.64
2544.94
1955.5
1846.47
1881.83
1894.13
1914.38
2026.75
2188.64
2355.59
2461.99
2507.22
2521.65
2503.62
2448.78
2328.93
2160.35
2018.8
1920.08
1901.78
1864.68
1840.91
1966.7
2606.24
3359.59
3308.51
2524.36
1931.43
1844.23
1850.61
1866.95
1867.22
1981.73
2128.76
2276.86
2374.81
2422.58
2430.27
2419.18
2367.27
2263.63
2109.72
1975.14
1868.5
1875.8
1845.97
1844.37
1927.7
2506.48
3279.88
3275.23
2533.47
1969.14
1883.24
1849.98
1833.55
1825.09
1933.61
2074.67
2214.16
2298.5
2333.69
2347.24
2331.68
2288.02
2193.94
2051.94
1927.45
1831.14
1847.2
1841.21
1879.23
1964.39
2514.68
3257.58
3187.16
2441.39
1941.63
1886.15
1807.06
1814.22
1795.16
1909.93
2033.01
2152.19
2223.11
2262.62
2267.46
2259.3
2216.36
2137.5
2010.02
1894.8
1792.97
1829.72
1810.59
1880.37
1939.63
2451.97
3205.96
3158.46
2441.93
1993.56
1917.73
1811.12
1788.75
1770.13
1869.03
1982.01
2094.42
2158.61
2184.44
2196.41
2184.03
2151.9
2081.53
1966.52
1867.2
1776.24
1801.08
1815.99
1908.71
1977.61
2419.71
3159.68
3089.92
2386.2
1997.88
1898.61
1784.3
1761.41
1747.53
1855.09
1951.31
2045.01
2093.32
2125.89
2128.05
2123.22
2089.39
2035.53
1932.52
1840.68
1747.48
1775.92
1790.11
1896.77
1985.3
2386.7
3110.42
3051.13
2360.3
2021.78
1921.81
1803.49
1746.42
1735.29
1826.59
1906.82
1994.51
2040.97
2058.06
2068.28
2058.16
2035.02
1984.37
1893.51
1820.74
1734.8
1755.52
1806.09
1913.59
2019.19
2366.1
3046.21
3012.84
2324.59
2014.52
1915.13
1784.44
1720.5
1708.37
1813.38
1881.14
1952.79
1982.54
2009.9
2010.24
2008.63
1982.1
1949.37
1867.75
1802.82
1707.42
1731.11
1790.43
1913.52
2009.08
2319.17
3002.36
2993.77
2314.75
2019.55
1935.29
1798.33
1725.86
1702.55
1787.73
1842.63
1906.43
1940.57
1951.21
1960.46
1952.29
1934.98
1899.93
1835.23
1789.67
1698.1
1729.85
1804.81
1929.11
2020.73
2326.52
3002.47
2942.31
2269.24
2005.44
1951.54
1789.63
1711.3
1677.73
1777.25
1824.04
1877.11
1890.55
1912.8
1911.13
1911.79
1890.64
1873.68
1808.25
1770.08
1671.03
1714.7
1791.21
1949.35
2003
2305.84
2988.72
2929.51
2279.74
2014.72
1996.54
1812.07
1729.95
1678.89
1755.2
1786.09
1830.29
1855.68
1862.2
1869.65
1863.24
1851.44
1827.21
1783.54
1763.58
1672.07
1728.39
1813.5
1979.54
2008.11
2290.32
2950.89
2893.48
2258.66
1991.38
2000.77
1819.95
1717.1
1662.2
1746.54
1769.21
1811.46
1814.37
1831.9
1828.39
1831.19
1814.31
1808.33
1751.93
1741.89
1657.3
1715.52
1812.26
2006.48
1974.89
2261.63
2918.02
2848.45
2250.74
1975.44
2000.01
1851.18
1748.58
1679.65
1735.11
1739.34
1765.44
1784.57
1788.49
1793.76
1789.35
1780.03
1763.34
1732.88
1738.07
1667.91
1741.33
1841.13
1992.91
1962.94
2250.63
2867.88
2824.26
2242.19
1944.98
1993.26
1905.51
1741.83
1673.98
1726.94
1723.33
1754.27
1750.38
1763.78
1759.08
1763.93
1750.26
1752.95
1701.77
1720.74
1673.69
1728.05
1871.43
1997.82
1934.96
2219.16
2825.67
2791.48
2236.17
1936.3
1982.18
1927.78
1779.03
1709.43
1730.78
1703.19
1710.65
1724.18
1725.52
1729.8
1727.54
1719.42
1712.6
1693.41
1727.96
1702.58
1774.28
1936.03
1981.49
1935.26
2235.4
2788.36
2763.97
2213.99
1912.79
1963.16
1928.63
1806.12
1714.07
1730.49
1692.17
1711.88
1698.22
1706.5
1700.5
1706.94
1696.32
1707.82
1664.84
1717.05
1705.16
1777.44
1935.14
1974.3
1918.73
2245.4
2758.99
2732.14
2212.95
1913.95
1933.36
1916.33
1875.65
1755.24
1751.75
1690.27
1671.65
1674.99
1673.18
1675.77
1674.79
1670.1
1677.54
1679.92
1742.83
1741.46
1836.23
1925.55
1941.77
1926.36
2230.24
2721.89
2711.33
2200.32
1900.14
1910.04
1903.69
1895.97
1770.02
1748.11
1686.79
1686.42
1658.09
1659.48
1651.29
1659.42
1654.06
1682.53
1659.39
1732.82
1764.27
1908.42
1913.64
1922.23
1911.57
2211.99
2704.08
2671.85
2181.66
1900.95
1888.07
1874.53
1886.91
1832.2
1778.65
1706.51
1655.81
1643.79
1632.11
1631.8
1632.75
1636.42
1659.93
1689.91
1767.73
1824.77
1902.41
1890.94
1893.27
1908.88
2194.52
2681.28
2654.26
2180.68
1890.23
1870.71
1842.87
1869.57
1916.35
1802.17
1707.96
1688.44
1642.83
1629.27
1615.66
1627.95
1635.98
1682.05
1669.68
1780.12
1914.61
1884.03
1863.01
1880.72
1888.77
2174.9
2662.27
2605.81
2160.27
1888.54
1858.73
1819.61
1855.79
1893.97
1867.84
1735.16
1660.94
1639.93
1612.56
1604.95
1612.21
1630.05
1667.84
1720.87
1846.02
1904.27
1869.84
1838.93
1860.29
1886.62
2165.51
2616.62
2564.26
2142.16
1869.88
1847.71
1798.98
1818.01
1882.77
1959.11
1765.09
1704.99
1647.87
1631.12
1605.89
1628.46
1639.78
1700.53
1716.4
1935.54
1885.29
1827.68
1815.8
1853.81
1874.76
2147.16
2578.47
2403.26
2092.93
1852.05
1835.04
1787
1799.26
1859.3
1929.36
1858.65
1689.49
1653.15
1614.82
1608.83
1613.72
1638.29
1705.21
1815.53
1929.5
1868.05
1804.34
1795.75
1836.44
1856.73
2094.87
2409.34
890.211
925.774
894.935
768.452
625.366
580.777
592.872
640.479
668.168
678.115
713.634
742.892
721.653
594.18
464.091
397.856
371.612
378.932
399.522
405.747
405.171
403.931
404.214
408.25
410.763
411.779
412.668
413.379
411.411
415.733
956.1
936.574
856.708
671.961
572.06
568.073
606.864
698.83
728.434
729.567
747.777
753.966
714.409
577.862
468.402
418.965
415.845
416.474
415.712
416.656
414.476
412.162
413.396
417.778
419.571
420.177
420.942
421.019
419.023
418.981
964.172
925.563
793.571
626.152
555.882
571.001
651.789
748.371
769.92
769.654
779.363
772.649
706.907
573.544
495.093
462.382
438.89
429.358
421.777
418.252
415.675
414.769
416.84
420.921
422.343
423.129
423.822
423.528
421.66
420.569
973.876
904.66
740.363
597.707
549.525
579.81
688.096
775.286
807.156
818.011
818.266
796.276
707.339
598.561
517.604
471.933
447.425
435.844
427.842
423.157
420.964
420.776
424.07
428.098
429.307
430.134
430.528
429.11
427.177
424.924
979.447
879.951
708.611
581.653
547.98
593.544
705.984
794.758
832.299
844.433
837.196
795.641
680.662
577.473
509.396
469.053
448.845
438.758
431.687
427.237
425.173
425.496
429.528
432.722
433.576
434.142
434.435
432.926
431.117
429.706
983.688
860.134
686.844
575.982
552.059
603.754
706.315
775.394
804.174
810.49
790.102
727.482
625.166
543.942
491.986
461.858
448.673
441.492
436.122
432.569
430.191
432.084
436.539
439.771
440.472
441.073
441.092
439.124
436.795
432.107
994.243
848.76
677.283
575.916
556.475
590.664
660.512
707.653
726.688
725.635
689.939
629.495
557.683
503.614
471.095
454.528
448.289
444.701
440.996
437.923
436.885
439.068
443.645
446.236
445.996
445.561
444.268
441.757
438.749
432.666
1009.71
845.537
673.23
575.815
545.725
551.85
579.11
602.255
610.325
600.903
567.842
532.179
497.055
473.415
459.873
453.312
450.782
449.684
446.562
443.726
444.921
447.663
452.204
453.547
452.951
452.259
450.121
446.877
442.312
435.192
1031.26
844.575
670.619
573.836
539.677
528.35
527.9
528.495
525.214
515.758
499.733
486.335
473.519
464.761
457.933
455.486
456.786
455.839
452.807
452.381
454.251
457.148
460.454
460.528
459.433
458.119
454.892
450.445
444.204
436.741
1048.83
843.14
669.007
576.579
540.197
525.284
516.434
510.046
502.085
492.564
484.059
478.463
471.113
465.412
461.947
464.079
466.02
464.299
462.091
463.443
465.582
467.988
469.291
468.275
466.639
464.406
460.011
453.961
446.381
437.984
1062
842.94
676.233
589.514
550.757
531.826
520.478
512.43
504.442
495.828
489.797
485.99
481.216
477.462
476.82
479.643
478.51
475.907
475.027
476.339
477.953
479.17
477.696
475.189
472.56
469.342
464.275
457.618
450.574
441.173
1070.61
849.265
693.412
612.529
575.111
555.731
543.909
536.225
529.83
524.583
520.458
516.138
510.97
505.996
502.726
500.27
496.221
491.8
490.717
490.816
491.054
489.393
485.667
481.864
478.241
474.148
468.546
461.453
453.829
443.274
1080.32
864.122
720.593
648.783
618.116
604.121
596.765
592.524
589.355
586.182
579.912
570.848
558.849
546.19
534.788
526.307
517.522
510.502
507.619
505.662
503.404
498.395
492.525
487.576
483.042
478.432
472.376
464.732
455.879
445.063
1092.77
887.759
760.208
701.147
679.936
674.985
675.654
676.06
674.661
668.705
655.832
637.774
614.73
592.178
571.343
554.573
539.741
530.281
524.657
519.83
513.536
506.009
498.335
492.309
487.024
481.869
475.362
467.017
457.935
448.07
1108.09
921.528
812.633
769.535
759.486
761.733
768.151
769.741
766.482
754.386
733.156
705.183
672.016
638.082
606.79
581.663
561.602
548.972
540.143
531.624
522.055
512.084
502.924
495.928
489.997
484.284
477.35
468.863
460.343
450.142
1124.52
965.801
878.616
851.379
848.785
860.249
866.615
865.571
855.982
835.162
803.726
764.416
719.912
675.809
636.821
605.32
581.089
564.912
552.661
540.532
528.771
517.146
506.875
498.925
492.326
485.889
478.723
469.802
461.433
451.228
1140.72
1016.98
955.747
938.928
944.244
959.211
961.801
954.457
933.284
899.892
856.7
806.925
754.229
704.305
660.858
624.532
597.324
577.999
561.907
546.994
533.034
520.222
509.853
501.199
494.059
486.954
479.415
470.639
462.314
452.383
1159.46
1073.6
1037.09
1026.88
1039.65
1049.22
1047.3
1028.29
992.846
948.694
896.402
838.785
779.985
725.914
679.328
639.684
610.55
588.359
568.5
551.175
535.742
522.602
511.817
503.024
495.587
487.744
480.039
471.575
463.134
453.525
1176.67
1133.56
1115.94
1108.69
1123.01
1127.89
1122.05
1090.22
1042.51
990.512
930.626
866.202
801.527
742.991
692.646
650.436
620.125
595.327
572.677
553.379
536.495
523.07
512.055
503.462
496.464
488.47
480.75
472.415
464.131
454.605
1197.77
1195.98
1190.67
1185.4
1194.6
1194.65
1182.59
1143.07
1088.19
1029.56
964.67
894.265
823.756
759.434
703.452
657.774
625.408
598.016
574.682
554.874
538.124
524.63
513.536
504.391
496.397
488.956
481.404
472.977
464.936
455.793
1221.46
1253.08
1260.23
1253.56
1255.81
1251.54
1232.77
1190.42
1135.07
1070.71
1002.14
927.408
851.829
780.619
716.742
664.27
626.767
597.944
575.894
556.876
540.672
527.08
515.552
505.983
497.368
489.487
482.277
474.149
465.789
456.931
1246.49
1309.22
1322.3
1311.91
1308.98
1301.13
1278.62
1235.03
1183.41
1115.56
1042.61
964.97
885.124
806.837
733.9
672.664
628.569
597.529
577.15
559.688
543.592
529.733
517.923
508.168
499.089
491.076
483.356
475.152
467.385
458.724
1274
1355.54
1377.61
1362.73
1356.48
1346.2
1321.77
1278.74
1228.41
1161.44
1082.6
1001.7
918.558
834.239
753.1
684.043
633.298
599.095
578.403
562.24
546.497
532.331
520.473
510.523
500.998
492.614
484.811
476.506
468.668
459.909
1261.18
1395.27
1424.75
1407.88
1399.56
1387.24
1361.6
1319
1269.39
1203.37
1122.02
1036.11
951.151
863.336
776.093
700.607
642.724
602.604
579.812
564.795
549.342
535.095
523.452
512.868
503.011
494.335
486.277
477.522
469.493
461.385
1282.72
1455.96
1464.23
1448.43
1438.6
1424.71
1398.8
1358.16
1309.73
1244.01
1161.18
1071.24
985.493
896.244
804.229
722.387
656.35
608.304
581.577
567.278
552.781
538.306
526.478
514.964
504.938
495.615
487.564
478.7
470.597
463.02
416.154
411.271
412.625
411.962
410.992
410.222
408.701
404.698
404.119
405.467
405.948
399.29
381.892
374.608
402.234
472.359
607.864
727.122
743.856
712.298
681.707
674.578
643.954
593.659
581.222
626.749
771.048
900.969
933.457
901.569
419.323
418.909
420.527
420.244
419.516
419.223
418.114
414.261
412.813
414.815
416.743
416.051
416.502
422.039
427.241
477.546
591.505
723.083
757.718
749.513
735.172
738.365
705.585
608.963
568.857
573.501
675.648
861.189
943.293
963.627
420.792
421.54
423.205
423.229
422.54
422.013
420.859
417.555
415.187
416.103
418.528
422.261
429.27
442.083
469.487
508.1
590.447
720.623
781.367
786.509
778.85
780.857
756.177
655.254
572.178
557.293
630.154
798.098
931.444
971.008
425.194
427.126
428.865
429.939
429.594
428.882
428.002
425.022
421.103
421.448
423.538
428.438
436.348
448.577
476.234
523.411
610.724
726.981
815.918
837.242
837.239
826.017
786.602
694.291
581.791
552.069
602.29
747.714
911.12
980.817
429.962
430.952
432.619
433.71
433.417
432.993
432.594
430.35
425.911
425.522
427.641
432.034
439.435
448.751
471.613
513.336
584.17
689.369
798.878
838.555
845.664
836.674
804.023
714.248
597.014
551.838
587.733
717.989
888.663
987.393
432.917
437.237
439.302
440.833
440.462
439.807
439.538
437.125
432.397
430.623
432.953
436.445
441.621
447.442
462.84
494.232
547.624
629.283
728.317
786.829
806.609
800.218
772.83
702.684
606.144
558.66
582.903
697.601
871.472
993.365
433.67
439.486
442.149
444.222
444.934
445.306
445.905
444.301
439.602
437.526
438.657
441.38
444.513
447.335
454.283
471.518
504.519
557.998
627.008
683.893
717.496
716.526
697.476
651.58
586.743
557.246
582.618
689.393
862.756
1007.18
435.708
442.915
447.277
450.398
451.855
452.252
453.129
452.51
448.39
445.626
444.992
447.486
449.84
449.746
452.549
459.707
473.223
495.963
528.742
561.245
591.837
598.915
591.109
570.3
547.155
546.074
579.73
683.101
860.475
1025.99
437.633
445.13
451.002
455.141
457.718
458.644
460.092
460.544
457.901
454.954
453.123
453.901
456.663
456.245
454.992
457.75
464.758
473.309
485.372
497.722
514.018
521.925
525.499
526.28
528.226
540.858
576.905
678.362
858.48
1047.04
438.681
447.122
454.426
460.172
464.046
465.97
467.886
469.184
468.543
466.347
464.009
463.401
465.56
467.034
464.222
462.452
465.914
471.598
478.763
484.287
493.352
502.752
510.858
517.67
526.73
542.65
580.813
676.231
855.282
1063.52
441.452
451.064
457.736
464.201
468.705
471.891
474.69
477.449
479.241
478.707
476.883
476.093
476.823
480.247
481.121
478.627
479.793
483.774
488.506
492.462
498.635
507.075
515.307
523.508
535.091
554.75
594.989
684.599
854.58
1073.7
443.354
453.91
461.201
468.313
473.073
477.164
481.173
485.496
489.279
491.666
491.352
491.522
493.02
498.242
503.857
506.431
510.987
516.741
522.632
527.247
531.056
535.718
541.783
549.427
561.032
580.848
619.301
702.89
861.907
1081.43
444.704
455.516
464.477
472.024
477.233
481.806
486.664
492.341
498.325
503.395
506.454
508.664
512.17
519.529
531.375
541.41
554.515
568.921
582.152
591.809
597.808
599.979
602.321
605.948
612.41
626.2
657.763
731.737
878.457
1091.37
447.07
457.051
466.489
474.783
480.81
485.704
491.422
498.235
506.123
513.746
520.645
526.262
532.533
543.158
560.62
580.452
603.936
629.38
654.066
672.727
685.539
690.125
690.416
688.686
686.715
691.037
712.283
773.014
903.773
1103.75
448.731
458.933
468.171
476.741
483.413
488.83
495.059
502.888
512.372
522.378
532.272
542.085
551.886
565.885
588.503
617.586
652.475
689.418
724.832
753.746
775.476
786.421
788.615
785.474
776.688
773.715
783.891
828.051
939.445
1119.69
449.522
459.762
469.112
478.39
485.404
491.358
498.054
506.652
517.187
528.874
541.138
554.545
568.053
585.946
612.733
648.171
690.664
737.817
784.561
825.176
857.657
878.638
887.772
887.771
879.2
866.167
868.937
896.702
984.803
1136.5
450.733
460.572
469.863
479.228
486.727
493.291
500.481
509.524
520.376
533.3
547.426
563.333
581.217
602.994
632.072
671.286
717.627
770.081
824.961
876.393
921.397
956.068
977.775
984.667
981.266
964.629
959.87
977.339
1036.93
1153.42
452.106
461.536
470.627
479.675
487.379
494.809
502.136
511.174
522.29
535.831
551.434
569.451
591.043
615.835
646.549
687.916
736.469
792.544
853.266
912.648
966.875
1013.02
1050.19
1069.76
1071.54
1061.55
1049.56
1060.67
1094.5
1172.71
453.503
462.718
471.18
479.961
487.558
495.349
502.542
511.005
522.231
536.051
553.333
572.805
596.319
624.211
656.104
699.077
750.608
810.764
877.136
943.485
1005.11
1059.62
1109.3
1142.21
1148.76
1144.51
1132.21
1140.67
1155.29
1191.26
454.957
463.752
471.779
480.294
487.281
494.549
502.193
511.744
523.404
537.083
554.245
574.445
598.094
626.757
661.965
707.486
764.41
830.13
902.187
974.621
1041.42
1102.8
1159.29
1199.82
1213.72
1215.05
1208.65
1215.91
1218.06
1213.13
455.823
464.662
472.677
480.958
488.141
495.459
503.543
513.469
525.343
539.178
556.039
575.521
598.167
627.516
665.525
718.386
783.062
855.535
932.625
1009.57
1080.71
1147.87
1204.04
1247.98
1268.74
1275.01
1275.67
1285.01
1274.38
1236.06
456.444
465.171
473.422
481.776
489.385
496.956
505.693
515.768
527.528
541.764
558.401
576.453
597.051
628.197
672.502
733.637
807.064
886.465
967.792
1047.85
1124.08
1194.46
1247.54
1292.6
1316.88
1326.78
1332.6
1346.53
1329.38
1259.95
457.99
466.025
474.272
482.798
490.848
498.875
508.022
518.203
529.86
544.22
560.596
577.347
597.538
631.608
682.395
751.081
832.574
918.003
1002.63
1086.25
1168.27
1238.12
1289.97
1334.77
1360.83
1373.11
1381.96
1399.72
1373.38
1287.48
459.736
467.491
475.508
484.071
492.423
500.945
510.219
520.937
532.521
547.044
562.7
577.944
599.95
640.02
697.588
772.471
860.104
949.066
1035.67
1124.48
1208.28
1277.92
1329.28
1373.68
1400.74
1414.89
1425.13
1443.7
1410.68
1273.98
461.583
469.172
477.013
485.546
493.803
502.898
512.638
523.982
535.743
550.437
564.963
579.464
605.118
652.798
718.379
799.553
891.981
982.336
1069.89
1163.15
1248.89
1317.98
1367.8
1410.1
1437.24
1452.84
1463.81
1479.62
1471.25
1296.08
785.119
754.998
741.542
723.486
709.092
697.064
688.743
685.161
683.666
685.141
691.867
704.387
722.164
745.303
772.832
804.661
841.241
880.463
922.56
965.787
1004.55
1040.03
1072.86
1102.67
1126.75
1147.36
1164.73
1178.69
1189.77
1200.22
1208.09
1214.52
1219.4
1222.71
1224.51
1224.53
1223.01
1219.57
1214.37
1207.31
1198.3
1187.12
1173.25
1156.5
1136.6
1113.57
1088.3
1061.26
1033.22
1004.39
974.537
944.174
914.163
884.787
856.297
829.139
803.439
779.373
757.025
735.869
715.731
696.352
677.901
660.838
645.486
631.879
619.921
609.383
600.093
591.798
584.408
577.896
572.205
567.242
562.889
559.032
555.564
552.335
549.234
546.16
543.14
540.167
537.331
534.539
531.95
529.344
526.992
524.774
522.756
521.019
519.423
518.04
516.754
515.113
513.391
511.113
508.53
505.68
502.658
499.831
497.038
494.407
491.715
489.028
486.36
483.911
482.45
481.623
480.244
479.362
479.339
480.264
481.726
481.436
480.458
479.992
481.286
480.987
479.385
477.209
473.806
469.395
467.399
466.001
463.757
950.786
925.097
895.467
864.241
836.733
813.033
794.198
781.796
775.102
774.771
781.867
797.237
821.587
855.772
900.093
954.033
1015.37
1079.87
1144.31
1206.16
1261.26
1307.89
1348.01
1381.19
1407.5
1427.79
1442.98
1454.3
1462.32
1467.82
1470.92
1472.42
1472.69
1471.88
1470.02
1467.01
1462.85
1457.46
1450.81
1442.75
1433.11
1421.68
1408.2
1392.51
1374.54
1354.42
1332.56
1309.09
1284.29
1258.38
1231.49
1203.97
1176.04
1147.71
1119.19
1090.55
1061.78
1032.94
1003.99
974.463
944.234
912.43
878.014
842.07
806.545
772.828
741.356
711.978
685.106
661.515
641.609
625.32
612.299
601.975
593.615
586.553
580.367
574.828
569.827
565.175
560.717
556.326
552.021
547.734
543.626
539.622
535.994
532.755
529.983
527.721
525.783
524.062
522.404
520.501
518.31
515.69
513.085
510.053
507.181
504.323
501.778
499.155
496.555
493.852
491.547
488.93
487.202
486.443
485.27
484.707
484.703
485.736
487.177
487.024
486.284
486.453
487.623
487.085
485.215
483.312
480.031
475.77
474.086
472.993
471.061
1124.69
1103.34
1073.03
1039.51
1007.89
980.671
959.278
944.445
936.249
936.091
945.472
965.673
997.104
1040.15
1093.95
1155.88
1222.59
1290.08
1354.82
1414.59
1467.04
1509.78
1545.4
1574.16
1596.46
1613.08
1624.88
1632.88
1638.31
1641.83
1643.71
1643.97
1643.05
1641.09
1638.25
1634.54
1629.94
1624.43
1617.97
1610.49
1601.86
1591.95
1580.61
1567.77
1553.43
1537.71
1520.76
1502.71
1483.68
1463.84
1443.32
1422.27
1400.84
1379.17
1357.35
1335.35
1313.22
1290.93
1268.39
1245.32
1221.27
1195.19
1165.91
1132.75
1095.52
1054.6
1010.41
963.077
913.34
863.482
816.559
774.611
738.443
708.064
682.826
661.759
644.083
629.283
616.851
606.212
596.813
588.268
580.385
573.046
566.321
560.174
554.66
549.82
545.604
542.037
538.949
536.184
533.568
531.02
528.286
525.359
522.367
519.351
516.129
513.149
510.421
507.732
505.124
502.484
500.039
497.751
495.81
494.847
493.556
492.492
492.213
492.892
493.63
494.559
494.33
494.744
494.753
493.983
492.108
490.131
487.439
483.261
481.19
480.157
478.688
1306.89
1289.21
1260.67
1228.08
1197.04
1170.16
1149.13
1135.18
1129.3
1132.76
1146.37
1170.71
1205.97
1251.73
1306.24
1366.58
1428.85
1490.16
1548.03
1600.52
1644.71
1680.71
1710.44
1733.89
1751.52
1764.23
1772.91
1778.29
1781.18
1782.58
1782.79
1782.02
1780.39
1777.98
1774.83
1770.94
1766.27
1760.77
1754.42
1747.23
1739.22
1730.37
1720.66
1710.08
1698.64
1686.42
1673.53
1660.07
1646.19
1631.95
1617.46
1602.76
1587.91
1572.98
1557.98
1542.9
1527.72
1512.36
1496.69
1480.41
1463.06
1443.86
1422.12
1397.32
1369.25
1337.98
1303.44
1265.18
1222.92
1176.66
1126.35
1072.72
1017.58
963.126
911.231
863.226
819.906
781.728
748.552
719.726
694.38
671.984
652.367
635.365
620.655
607.827
596.533
586.586
577.908
570.321
563.848
558.282
553.337
548.905
544.845
541.038
537.237
533.378
529.762
526.244
522.964
520.089
517.381
514.685
511.908
509.403
507.377
505.806
503.853
501.938
500.872
501.443
502.027
503.186
503.381
503.922
503.768
502.864
500.825
498.917
496.12
491.637
489.505
488.477
487.241
1484.24
1469.27
1443.15
1413.27
1384.6
1359.98
1341.05
1329.69
1326.79
1332.85
1348.58
1374.12
1409.06
1452.2
1501.58
1554.76
1608.63
1660.39
1708.32
1751.26
1787.11
1817.07
1841.57
1860.59
1874.63
1884.58
1891.24
1895.32
1897.18
1897.46
1896.92
1895.59
1893.58
1890.91
1887.56
1883.53
1878.81
1873.39
1867.31
1860.61
1853.28
1845.37
1836.99
1828.23
1819.16
1809.85
1800.36
1790.74
1781.03
1771.26
1761.47
1751.65
1741.79
1731.87
1721.86
1711.75
1701.46
1690.88
1679.81
1667.94
1654.87
1640.15
1623.44
1604.49
1583.16
1559.32
1532.77
1503.11
1469.77
1432.07
1390.3
1344.95
1297
1247.58
1197.62
1147.95
1098.93
1050.67
1003.35
957.113
912.351
869.722
830.066
793.839
761.053
731.607
705.179
681.579
660.698
642.646
626.586
613.247
602.056
592.6
584.02
576.175
568.556
561.018
554.197
548.213
543.024
538.644
534.723
531.119
527.752
524.703
522.188
519.579
517.215
514.693
512.311
512.184
513.008
513.709
513.744
513.6
513.631
512.336
509.622
507.272
503.898
499.892
497.854
496.715
495.318
1646.94
1633.14
1609.46
1583.1
1557.19
1534.55
1517.83
1508.96
1507.86
1514.9
1530.51
1554.53
1586.2
1624.13
1666.45
1711.04
1756.03
1798.63
1836.8
1870.71
1900.04
1924.69
1944.51
1959.96
1971.54
1979.93
1985.67
1989.32
1991.22
1991.7
1991
1989.53
1987.45
1984.7
1981.28
1977.2
1972.45
1967.09
1961.2
1954.88
1948.25
1941.46
1934.62
1927.85
1921.21
1914.67
1908.3
1902.08
1895.92
1889.75
1883.53
1877.23
1870.79
1864.19
1857.17
1849.85
1842.25
1834.13
1825.25
1815.32
1804.09
1791.27
1776.79
1760.49
1742.28
1722.02
1699.5
1674.41
1646.48
1615.43
1581.28
1544.39
1505.17
1464.16
1421.8
1378.23
1333.63
1288.49
1243.19
1197.94
1152.67
1107.72
1063.58
1020.57
978.829
938.603
899.764
862.763
827.693
794.812
764.602
737.455
712.873
690.99
671.515
654.168
638.062
622.674
608.621
595.562
583.252
572.245
562.944
554.921
548.467
543.216
538.321
534.381
531.653
528.711
525.262
524.11
525.225
525.797
525.547
524.506
524.437
522.764
519.864
516.874
513.868
509.99
507.886
506.33
504.658
1788.74
1776.13
1755.07
1730.7
1706.66
1685.96
1671.36
1664.46
1664.24
1671.23
1685.6
1706.97
1734.45
1766.68
1802.05
1838.74
1875.12
1909.13
1940.32
1968.17
1992.07
2011.93
2028.1
2040.95
2050.9
2058.43
2063.9
2067.7
2070.08
2071.08
2071.01
2069.87
2067.78
2065.04
2061.65
2057.63
2053.04
2048.01
2042.69
2037.26
2031.88
2026.72
2021.89
2017.45
2013.36
2009.62
2006.15
2002.78
1999.35
1995.76
1992.15
1988.32
1984.11
1979.39
1974.03
1967.93
1960.89
1952.9
1943.94
1933.93
1922.73
1910.26
1896.27
1880.81
1863.73
1844.86
1824.09
1801.19
1776.29
1749.27
1720.26
1689.3
1656.48
1622.05
1586.28
1549.38
1511.61
1472.83
1433.03
1392.4
1351.23
1309.52
1267.7
1225.88
1184.08
1142.72
1101.78
1061.47
1021.88
983.369
946.37
910.581
875.986
843.502
813.193
784.616
757.751
732.352
708.87
687.127
666.089
645.943
626.923
609.103
593.604
580.919
569.563
559.513
552.092
546.439
540.713
537.49
537.814
538.644
537.605
536.585
535.996
534.031
530.804
527.668
524.535
521.873
519.625
517.498
515.172
1909.34
1897.88
1878.14
1855.16
1832.58
1813.67
1800.98
1795.44
1795.61
1802.16
1815.05
1833.74
1857.3
1884.47
1913.87
1943.61
1973.3
2001.68
2027.68
2050.4
2069.99
2086.55
2100.29
2111.52
2120.54
2127.68
2133.22
2137.42
2140.31
2142.02
2142.52
2142.02
2140.45
2137.9
2134.66
2130.91
2126.79
2122.53
2118.34
2114.43
2111.03
2108.21
2106.03
2104.39
2103.15
2102.21
2101.57
2100.79
2099.67
2098.09
2095.8
2092.85
2089.26
2085
2079.98
2074.08
2067.22
2059.29
2050.22
2039.94
2028.41