/*--------------------------------*- C++ -*----------------------------------*\
| =========                 |                                                 |
| \\      /  F ield         | OpenFOAM: The Open Source CFD Toolbox           |
|  \\    /   O peration     | Version:  2112                                  |
|   \\  /    A nd           | Website:  www.openfoam.com                      |
|    \\/     M anipulation  |                                                 |
\*---------------------------------------------------------------------------*/
FoamFile
{
    version     2.0;
    format      ascii;
    arch        "LSB;label=32;scalar=64";
    class       volVectorField;
    location    "0.00764";
    object      U;
}
// * * * * * * * * * * * * * * * * * * * * * * * * * * * * * * * * * * * * * //

dimensions      [0 1 -1 0 0 0 0];

internalField   nonuniform List<vector> 
13875
(
(2204.18 109.702 1.81269e-18)
(2142.46 5.65167 -9.38743e-19)
(2170.24 -2.16332 -9.41089e-19)
(2167.86 -0.717182 0)
(2170.33 0.276579 0)
(2169.24 -1.33482 9.36881e-19)
(2169.38 -1.18452 -9.37132e-19)
(2169.71 0.0426892 -4.68472e-19)
(2169.08 0.200995 4.68286e-19)
(2169.15 -0.113933 0)
(2169.52 0.0700671 -3.88192e-22)
(2169.47 1.00791 -3.88072e-22)
(2169.6 0.93729 0)
(2169.4 -0.0124835 -4.68223e-19)
(2169.45 -0.91274 4.68591e-19)
(2169.6 -1.28858 0)
(2169.87 -0.270899 9.37055e-19)
(2169.23 0.346801 -9.37798e-19)
(2169.14 0.949676 3.87942e-22)
(2169.81 1.1884 -3.85758e-22)
(2170.45 -0.16508 -9.36289e-19)
(2167.84 0.294499 9.37165e-19)
(2171.09 2.49839 -1.87793e-18)
(2143.7 -8.6463 1.91631e-18)
(2210.26 -106.674 1.76389e-18)
(2253.4 91.9349 -1.63243e-18)
(2228.47 -1.18212 1.88337e-18)
(2247.44 0.693294 8.71818e-19)
(2245.56 0.862641 -8.67023e-19)
(2248.49 -0.763295 4.17029e-22)
(2247.78 1.91803 5.2043e-22)
(2245.94 1.49649 4.16064e-22)
(2245.64 -0.052022 -4.35882e-19)
(2245.02 -0.169526 4.36057e-19)
(2245.01 0.101107 2.17583e-19)
(2245.39 -0.121413 -1.6303e-19)
(2245.43 -1.32345 -5.31496e-20)
(2247.71 -1.18176 0)
(2247.85 0.070105 -4.34984e-19)
(2247.56 1.0316 4.33461e-19)
(2245.59 1.42714 4.3603e-19)
(2245.51 0.508573 -4.35308e-19)
(2245.2 -0.241058 5.18485e-22)
(2245.69 -1.57258 -5.18689e-22)
(2247.84 -1.96891 5.19791e-22)
(2248.4 0.749881 -8.71466e-19)
(2245.58 -0.688481 2.59981e-18)
(2247.27 -1.58703 -1.74254e-18)
(2228.93 3.67732 5.42843e-22)
(2256.4 -97.1194 -1.71394e-18)
(2252.41 78.1217 0)
(2236.34 -18.2558 0)
(2249.49 4.3847 0)
(2250.62 -1.83182 0)
(2253.47 -2.60807 -1.63985e-18)
(2253.23 1.56318 1.64242e-18)
(2253.3 2.15753 1.72216e-18)
(2253.29 0.959852 -2.58331e-18)
(2252.65 0.567492 8.61651e-19)
(2252.66 -0.171615 4.30379e-22)
(2253.6 -0.245793 -4.30721e-19)
(2253.13 -2.23707 4.30197e-19)
(2254.12 -2.52021 0)
(2254 0.0315856 0)
(2254.04 2.37241 4.0818e-22)
(2253.18 2.00596 0)
(2254.06 0.21377 8.38095e-22)
(2253.13 -0.295842 4.30566e-19)
(2253.09 -2.50946 -4.30664e-19)
(2253.54 -1.75711 0)
(2253.72 2.35227 0)
(2250.91 1.32283 0)
(2250.71 -4.79588 0)
(2237.94 13.8665 0)
(2257.05 -74.6263 0)
(2247.86 51.3553 0)
(2235.04 -28.7042 1.81423e-18)
(2249.29 7.18101 -3.41674e-18)
(2251.59 -4.74511 3.46614e-18)
(2253.3 -3.04219 -1.63497e-18)
(2253.14 1.41525 0)
(2253.56 1.73103 -8.29859e-22)
(2253.77 0.423798 0)
(2253.57 0.0748037 0)
(2253.85 -0.785628 0)
(2254.5 -0.411746 0)
(2254.15 -2.03113 -8.44007e-22)
(2254.09 -2.45569 -5.07246e-20)
(2253.97 0.00645949 5.06059e-20)
(2254.01 2.28696 0)
(2254.26 1.8051 0)
(2254.74 0.250795 7.99404e-22)
(2254.18 0.392233 -8.56838e-19)
(2253.82 -1.73928 8.5632e-19)
(2253.42 -1.49107 -1.62416e-18)
(2253.56 2.74392 1.62357e-18)
(2251.98 4.31567 1.74094e-18)
(2249.76 -8.85617 -1.72063e-18)
(2235.73 31.3304 0)
(2251.81 -58.295 0)
(2244.89 39.2927 1.749e-18)
(2235.42 -47.886 0)
(2248.69 10.4236 0)
(2250.22 -7.57818 0)
(2253.36 -4.12571 0)
(2253.05 1.00785 1.67736e-21)
(2253.3 1.45438 1.65514e-21)
(2253.6 0.236696 4.26848e-19)
(2253.48 -0.146817 -4.3009e-19)
(2253.87 -1.09959 2.13665e-19)
(2254.51 -0.512571 -2.17471e-19)
(2254.2 -1.62041 0)
(2254.11 -2.2932 0)
(2253.9 -0.000866267 -1.65143e-21)
(2254.05 2.0899 0)
(2254.3 1.35561 -1.68504e-21)
(2254.71 0.259001 8.07247e-19)
(2254.02 0.725624 -8.50159e-19)
(2253.5 -1.21748 1.71604e-18)
(2253.54 -0.840783 -1.69244e-18)
(2253.61 3.75316 1.65334e-21)
(2250.68 6.4422 0)
(2250.04 -11.5288 0)
(2237.29 42.8364 0)
(2250.64 -35.3661 0)
(2241.49 6.77492 0)
(2231.51 -63.5847 9.12471e-19)
(2247.16 12.2959 -8.479e-19)
(2250.67 -11.0802 0)
(2252.47 -4.59116 8.61323e-19)
(2252.54 0.475058 -4.36468e-19)
(2253.31 0.841523 -2.96254e-21)
(2253.56 -0.157584 -2.18468e-19)
(2253.48 -0.574815 -4.34231e-19)
(2253.88 -1.73891 1.6384e-19)
(2254.42 -0.657317 1.69201e-21)
(2254.1 -1.39033 2.68276e-19)
(2253.98 -2.14894 -2.15287e-19)
(2253.78 -0.0814804 3.35738e-21)
(2253.89 1.89899 -4.27413e-19)
(2254.22 1.15719 4.33262e-19)
(2254.65 0.315324 1.63674e-21)
(2254.12 1.33598 -1.68316e-21)
(2253.74 -0.328834 -1.67989e-21)
(2252.97 -0.369824 -8.60163e-19)
(2252.77 4.12459 8.46115e-19)
(2251.44 10.6624 0)
(2247.38 -15.1783 0)
(2232.45 65.3276 -1.93335e-18)
(2246.12 -18.9215 -1.26463e-19)
(2254.01 2.92383 -4.95262e-20)
(2227.45 -79.2933 6.0245e-20)
(2242.97 12.3539 0)
(2248.23 -15.4152 -2.69244e-23)
(2251.91 -6.05792 -2.62587e-23)
(2251.85 -0.382849 0)
(2252.74 0.00373357 0)
(2253.23 -0.498454 -8.59737e-19)
(2253.3 -0.942387 8.63292e-19)
(2253.89 -2.06608 0)
(2254.27 -0.62248 1.67763e-18)
(2254.08 -0.938668 4.11904e-21)
(2253.86 -1.76191 -1.72142e-18)
(2253.63 -0.069964 -1.71253e-21)
(2253.87 1.46285 0)
(2254.19 0.69481 3.44596e-18)
(2254.42 0.364265 1.7557e-21)
(2253.75 1.71085 -6.90576e-18)
(2253.09 0.320557 3.45147e-18)
(2252.82 0.94254 2.64364e-23)
(2252.28 6.08957 0)
(2248.52 12.9469 3.52718e-18)
(2244.19 -12.5202 -3.30822e-18)
(2228.91 72.8756 3.81528e-18)
(2247.19 2.84469 -3.18224e-18)
(2218.3 -22.8042 -3.17014e-19)
(2214.63 -87.3682 -7.49724e-18)
(2235.51 3.73241 8.70789e-22)
(2245.7 -22.0403 2.61197e-23)
(2248.62 -8.07341 -8.08334e-22)
(2250.72 -2.06905 0)
(2252.54 -1.33583 -3.45066e-18)
(2253.17 -1.29834 3.42981e-18)
(2253.29 -1.67711 0)
(2253.77 -2.61809 -8.41045e-22)
(2253.97 -0.781282 -8.23735e-22)
(2253.8 -0.757105 0)
(2253.53 -1.5527 0)
(2253.32 -0.0892108 -1.66135e-21)
(2253.48 1.28113 -8.37988e-22)
(2253.93 0.541597 2.60032e-23)
(2254.14 0.676735 -8.56378e-22)
(2253.52 2.45618 -2.62898e-23)
(2252.91 1.77431 -1.73258e-18)
(2251.42 2.40301 -1.62486e-20)
(2249.26 8.04133 1.68899e-18)
(2246.4 19.379 8.85447e-22)
(2236.72 -4.79292 3.4589e-18)
(2216.56 81.487 -3.53769e-18)
(2222.28 18.1423 2.50377e-23)
(2113.18 -37.8243 9.42728e-19)
(2168.54 -98.5222 0)
(2217.03 -19.9408 -8.31386e-22)
(2234.6 -31.9864 -8.66343e-19)
(2245.53 -16.279 1.70949e-18)
(2248.24 -5.88958 -1.72805e-18)
(2251.18 -3.38051 8.65904e-21)
(2252.26 -2.10782 8.57436e-19)
(2252.66 -2.09029 0)
(2253.21 -2.78004 -8.4788e-19)
(2253.34 -0.621793 8.49176e-19)
(2253.3 -0.195161 0)
(2252.96 -1.03787 0)
(2252.72 -0.212367 2.10536e-21)
(2252.96 0.568354 8.33592e-22)
(2253.31 0.0585503 8.42e-19)
(2253.33 0.894976 -8.44542e-19)
(2252.53 3.25971 0)
(2251.25 3.39807 8.60821e-19)
(2249.46 6.02868 -1.72886e-18)
(2246.23 15.1252 8.45067e-19)
(2236.18 28.8653 -8.4089e-22)
(2219.04 16.6703 0)
(2171.37 93.9329 0)
(2117.09 35.3255 0)
(1873.48 -142.15 -6.57115e-17)
(2125.55 -161.223 8.42778e-17)
(2198.66 -54.3046 0)
(2229.08 -53.2817 -2.99445e-17)
(2239.59 -20.8573 3.06804e-17)
(2246.23 -10.5864 0)
(2249.73 -7.24201 -2.94327e-20)
(2250.98 -4.10006 -1.46738e-17)
(2251.5 -3.40849 1.46958e-17)
(2252 -3.28685 -2.9177e-20)
(2252.1 -0.904746 0)
(2252.13 -0.161299 -3.70058e-18)
(2251.78 -0.678656 5.58977e-18)
(2251.53 -0.250546 -1.90212e-18)
(2251.72 0.449934 -2.92377e-20)
(2252.02 0.393734 0)
(2251.91 1.77469 0)
(2250.95 5.02175 -2.94828e-17)
(2249.44 7.55477 2.90904e-17)
(2246.69 10.3032 -3.06019e-17)
(2240.49 20.4807 2.91882e-17)
(2229.42 52.9605 3.22027e-17)
(2199.87 52.4918 -2.92254e-17)
(2128.73 161.823 -8.33791e-17)
(1884.75 138.323 -1.25729e-17)
(1652.97 -215.439 -9.08485e-17)
(2011.35 -307.355 1.37642e-16)
(2159.54 -103.802 0)
(2211.11 -64.0792 6.8116e-17)
(2232.76 -28.9506 -7.08419e-17)
(2241.9 -15.0845 -3.40427e-17)
(2245.64 -7.71359 3.38089e-17)
(2247.89 -4.38406 -3.3419e-17)
(2248.91 -3.20241 3.34807e-17)
(2249.59 -2.4153 3.23373e-20)
(2249.72 -0.225973 0)
(2249.81 0.510646 -2.1151e-18)
(2249.48 -0.0468234 2.16848e-18)
(2249.18 -0.377705 3.29702e-20)
(2249.29 -0.433064 3.28427e-20)
(2249.4 -0.385863 3.30774e-20)
(2249.16 0.905528 0)
(2248.02 4.56519 0)
(2245.09 7.61214 -6.77027e-17)
(2242.29 15.344 6.82166e-17)
(2233.71 26.9211 -7.13811e-17)
(2211.58 59.0021 1.47097e-16)
(2166.11 99.4066 -6.99441e-17)
(2016.81 298.579 -3.86824e-20)
(1698.06 205.989 8.75067e-20)
(1281.81 -592.526 -1.0893e-16)
(1742.37 -590.715 1.18937e-16)
(2047.14 -180.164 2.16646e-16)
(2174.36 -106.114 -9.34575e-17)
(2208.51 -36.323 0)
(2230.28 -20.6015 7.41635e-17)
(2238.76 -13.4778 -7.52188e-17)
(2241.71 -8.00676 0)
(2243.35 -5.6494 3.54323e-20)
(2244.35 -3.65888 0)
(2244.65 -0.957891 0)
(2244.78 0.288365 0)
(2244.56 0.352113 4.67018e-18)
(2244.24 -0.143693 -4.63511e-18)
(2244.22 0.0039942 -3.71293e-20)
(2243.99 0.816416 -3.54623e-20)
(2243.38 2.84611 0)
(2241.75 7.24881 0)
(2238.01 13.9842 0)
(2228.62 19.1251 -7.89027e-17)
(2211.6 37.2223 1.56854e-16)
(2176.54 102.576 -7.23033e-17)
(2052.87 161.772 -1.33639e-16)
(1750.16 592.171 1.00491e-16)
(1286.38 543.518 -5.99285e-20)
(1302.29 -610.413 1.60774e-16)
(1113.82 -1086.52 0)
(1704.3 -451.9 0)
(1929.23 -130.022 -1.08125e-16)
(2151.09 -85.1098 1.09252e-16)
(2201.87 -43.4369 0)
(2216.11 -14.2142 1.12834e-20)
(2224.41 -6.38136 4.04695e-17)
(2228.56 -2.93003 -4.0825e-17)
(2231.13 -0.962103 0)
(2232.08 0.767262 -1.00381e-17)
(2232.44 1.21421 1.01285e-17)
(2232.43 1.01795 -5.08616e-18)
(2232.08 0.03859 5.08992e-18)
(2231.76 -0.674756 3.85963e-20)
(2230.63 -1.12609 -4.05735e-17)
(2228.18 -0.157678 8.04638e-17)
(2223.8 4.38826 1.04024e-18)
(2213.94 13.2962 -4.03966e-17)
(2198.09 44.6902 -9.08846e-17)
(2134.42 72.113 8.434e-17)
(1912.87 109.541 8.25375e-20)
(1759.42 455.084 2.60502e-20)
(1103.61 1071.33 1.67445e-16)
(1319.75 612.306 7.17201e-18)
(1359.35 -629.523 0)
(1143.16 -1059.33 0)
(1293 -751.937 0)
(1196.26 -813.413 0)
(1954.94 -257.032 0)
(2050.35 -62.3752 1.01966e-16)
(2156.93 -47.1146 -1.04215e-16)
(2175.67 -30.5188 1.153e-19)
(2185.26 -19.6722 -1.0308e-20)
(2192.1 -10.2942 2.25963e-17)
(2194.34 -4.36415 -2.28512e-17)
(2195.24 -0.867981 -2.25758e-19)
(2195.41 0.776054 -7.07338e-19)
(2194.99 1.56017 8.02601e-19)
(2194.26 3.58309 -2.26554e-17)
(2191.82 8.31506 2.24418e-17)
(2185.13 17.5164 9.91979e-20)
(2174.55 31.4765 0)
(2150.06 52.6665 0)
(2020.57 86.8307 0)
(1918.05 323.202 -2.11161e-16)
(1171.19 814.097 -6.1643e-17)
(1297.24 702.416 1.63938e-16)
(1135.39 1023.14 2.05628e-20)
(1369.22 618.932 2.08595e-20)
(1437.55 -621.229 0)
(1273.91 -928.148 3.94e-20)
(1322.33 -785.336 0)
(1236 -859.979 -1.67834e-16)
(1334.59 -805.407 3.18334e-16)
(1642.29 -557.199 -2.04399e-16)
(1938.66 -119.92 0)
(1958.96 -13.3908 -1.02544e-19)
(2007.21 15.1177 0)
(2044.26 9.37485 0)
(2055.99 6.76836 -1.40998e-17)
(2059.96 3.19656 1.44161e-17)
(2060.97 2.14439 1.42301e-17)
(2060.37 1.29703 -1.4305e-17)
(2058.04 -0.391769 0)
(2049.3 -4.51206 -5.86565e-17)
(2017.05 -10.4069 5.92055e-17)
(1962.15 16.8786 7.11375e-17)
(1937.06 139.241 -5.97399e-17)
(1605.31 582.67 0)
(1308.52 797.527 0)
(1204.84 850.146 -1.71178e-19)
(1331.3 779.522 -1.7081e-16)
(1266.97 919.02 3.66648e-16)
(1425.6 618.971 -1.69397e-16)
(1520.08 -631.301 -1.69168e-16)
(1387.8 -855.328 1.8706e-16)
(1384.26 -759.312 0)
(1281.21 -819.362 -1.90083e-16)
(1307.56 -783.906 -6.38183e-18)
(1304.39 -746.24 2.77324e-16)
(1256.76 -592.838 -1.99815e-16)
(1319.81 -522.715 1.18205e-16)
(1538.14 -273.064 0)
(1560.78 -122.007 0)
(1545.51 -60.169 -4.09779e-20)
(1541.89 -21.7795 2.74617e-19)
(1538.96 -3.37933 0)
(1540.38 12.3427 0)
(1544.06 42.4436 5.82101e-17)
(1553.66 110.565 -5.53909e-17)
(1572.29 231.214 -1.10851e-16)
(1334.44 523.901 2.24298e-16)
(1242.35 594.225 1.83485e-17)
(1286.29 745.038 -9.02595e-17)
(1301.64 780.337 0)
(1253.12 822.353 0)
(1382 760.387 -1.73964e-16)
(1351.71 886.708 2.03028e-16)
(1502.47 640.951 -4.59431e-20)
(1660.53 -610.16 1.57208e-16)
(1563.04 -751.033 -9.69515e-20)
(1527.72 -690.659 9.48574e-17)
(1466.21 -727.539 -8.48906e-17)
(1397.59 -681.367 -4.48509e-20)
(1336.36 -597.902 8.77158e-20)
(1188.19 -445.909 1.15833e-16)
(865.982 -237.856 -1.80525e-16)
(686.23 -123.211 6.39852e-17)
(529.185 -55.9458 0)
(404.127 -19.794 -3.37345e-17)
(363.49 -6.31785 3.36581e-17)
(346.525 1.19028 0)
(353.041 9.32685 6.30848e-20)
(382.569 16.6665 -3.35892e-17)
(488.522 47.1205 3.38429e-17)
(727.296 119.142 0)
(861.651 246.814 -1.1689e-16)
(1167.64 434.088 1.17292e-16)
(1323.89 593.128 8.88879e-17)
(1390.14 684.063 -1.86662e-16)
(1432.09 747.096 9.93829e-17)
(1519.86 710.783 0)
(1547.11 777.748 1.68735e-16)
(1649.93 625.181 -3.26092e-18)
(1815.42 -551.921 -3.3113e-18)
(1745.47 -601.279 8.01301e-17)
(1689.44 -546.95 -3.63621e-17)
(1542.06 -420.366 -5.73183e-17)
(1422.4 -355.264 7.30786e-17)
(1382.14 -272.296 -5.12859e-17)
(1288.43 -252.99 5.30574e-17)
(943.248 -195.112 -5.86956e-17)
(727.004 -103.728 -4.7409e-19)
(596.418 -58.5847 3.30266e-17)
(500.874 -31.7674 1.65083e-17)
(468.086 -17.4636 -1.57697e-19)
(455.435 0.631187 -1.66898e-17)
(462.387 21.0194 -6.06417e-20)
(493.154 32.0805 -7.53056e-20)
(583.993 54.2622 -2.07134e-18)
(785.692 100.323 1.9289e-20)
(958.356 188.28 5.39463e-18)
(1281.75 231.963 -3.5291e-18)
(1375.38 303.343 0)
(1414.28 397.805 1.08803e-17)
(1548.48 467.569 -3.46982e-17)
(1689.16 587.627 4.14166e-17)
(1741.37 632.096 -5.66447e-17)
(1810 569.377 5.31485e-17)
(1995.38 -509.463 -8.62571e-20)
(1955.64 -332.55 -1.04055e-19)
(1882.15 -321.264 1.21364e-19)
(1787.22 -213.848 -5.52511e-21)
(1524.42 -60.912 -1.84631e-19)
(1414.99 -25.7534 -2.00257e-19)
(1374.6 -72.5627 -7.16923e-21)
(1196.89 -93.1597 0)
(962.36 -107.141 0)
(819.937 -122.042 6.56496e-17)
(742.376 -103.084 -6.70627e-17)
(699.666 -48.955 -8.86226e-21)
(684.951 2.94148 8.84137e-21)
(690.11 52.4417 -8.63524e-18)
(724.519 115.516 8.36773e-18)
(809.038 147.923 0)
(981.468 129.115 0)
(1168.95 108.213 -5.64786e-17)
(1345.72 77.7367 5.60839e-17)
(1377.76 15.4752 -1.94382e-19)
(1519.98 57.2243 0)
(1794.26 220.626 0)
(1884.76 323.425 -1.24558e-19)
(1953.46 333.626 -1.07205e-19)
(1997.03 524.326 1.22997e-16)
(1523.98 -189.342 -1.86281e-16)
(1750.19 -120.627 -2.3824e-16)
(1858.16 102.11 1.21744e-16)
(1801.78 146.53 0)
(1637.79 197.418 1.9966e-19)
(1516.93 141.853 1.07855e-16)
(1505.4 29.9599 -2.08648e-16)
(1407.55 -20.1162 1.06215e-16)
(1222.61 -58.1004 -1.20987e-16)
(1061.3 -85.1095 1.25264e-16)
(937.018 -72.9938 3.29707e-17)
(866.557 -28.9044 -4.10437e-17)
(842.443 5.9737 -8.31017e-18)
(859.671 39.7194 1.68089e-17)
(929.57 89.5431 0)
(1067.81 109.627 0)
(1241.81 77.9133 1.16648e-16)
(1388.36 36.5013 -2.20741e-16)
(1492.13 -30.0391 1.09375e-16)
(1504.47 -152.003 2.27567e-19)
(1648.09 -203.785 1.54839e-16)
(1790.95 -158.384 -9.65952e-17)
(1837.81 -137.221 -4.88038e-16)
(1746.47 130.877 6.20912e-16)
(1508.8 188.815 -2.49623e-16)
(2.34518 -78.8702 1.14416e-19)
(535.171 -96.6978 -2.57725e-16)
(1415.43 312.615 1.71216e-16)
(1675.55 503.057 0)
(1666.78 424.382 0)
(1610.24 271.671 0)
(1601.95 134.055 0)
(1529.94 65.2457 0)
(1369.64 18.6451 -5.17198e-17)
(1207.01 -19.892 1.08443e-16)
(1078.75 -26.7541 -8.4645e-17)
(1001 -6.02023 3.2166e-17)
(979.723 8.76934 -3.62455e-18)
(1000.87 21.1282 1.57614e-20)
(1085.68 45.9251 -5.58335e-17)
(1232.45 41.6366 5.54762e-17)
(1398.84 -1.55931 0)
(1525.37 -52.7892 0)
(1606.3 -132.424 -1.72774e-16)
(1605.58 -292.528 1.85935e-16)
(1670.78 -429.813 -1.6293e-19)
(1658.89 -503.912 7.25949e-20)
(1378.17 -287.323 -9.49804e-20)
(459.735 132.466 -1.15996e-19)
(-80.521 84.9564 0)
(-321.241 -59.4833 -2.25727e-16)
(415.695 286.604 2.30138e-16)
(1272.06 664.799 -1.69223e-19)
(1633.83 747.536 1.62659e-16)
(1722.02 579.169 -1.21292e-16)
(1689.38 382.785 0)
(1673.78 231.112 -8.1884e-17)
(1612.45 158.719 7.45863e-17)
(1474.06 93.6711 -4.45772e-17)
(1323.47 37.3826 9.35439e-17)
(1194.78 12.2483 -4.81934e-17)
(1122.37 10.0373 1.8306e-19)
(1101.12 6.91663 0)
(1127.31 2.66744 2.48965e-17)
(1212.49 0.286144 2.31358e-17)
(1356.12 -28.2255 -4.74147e-17)
(1502.18 -89.8507 -8.15274e-17)
(1608.63 -152.868 8.39099e-17)
(1682.19 -233.856 -7.18357e-17)
(1687.59 -408.475 7.99007e-17)
(1722.04 -596.742 7.98555e-20)
(1603.16 -764.409 -7.53788e-20)
(1220.27 -653.772 0)
(358.668 -283.615 1.12281e-19)
(-305.811 20.9309 0)
(300.656 305.374 1.90043e-16)
(889.039 758.997 -1.86939e-16)
(1417.37 882.304 6.12732e-20)
(1680.23 870.822 0)
(1774.23 676.326 0)
(1737.34 504.155 -7.31312e-21)
(1716.35 352.569 0)
(1667.3 249.096 7.40768e-20)
(1550.16 168.028 0)
(1414.74 96.5568 4.16162e-17)
(1300.54 49.8638 -6.39911e-17)
(1228.75 25.0847 3.26414e-17)
(1209.74 6.25918 -1.10046e-17)
(1234.01 -15.1643 0)
(1315.81 -39.8195 0)
(1443.21 -88.6568 3.8861e-17)
(1572.9 -161.739 -1.09291e-16)
(1661.54 -248.026 7.30707e-17)
(1734.94 -343.512 -6.06721e-17)
(1741.03 -511.125 7.02006e-17)
(1779.92 -680.268 0)
(1669.17 -885.216 0)
(1409.25 -887.864 0)
(911.244 -777.147 -1.14699e-20)
(299.832 -265.074 -1.99975e-16)
(362.112 128.365 -3.59391e-20)
(1132.31 747.818 1.54438e-16)
(1544.73 946.356 -1.17214e-16)
(1743.9 911.078 0)
(1803.85 738.663 0)
(1762.6 592.527 7.55699e-21)
(1754.86 442.613 6.43978e-17)
(1713.93 327.285 -5.70381e-17)
(1612.08 224.36 3.03489e-20)
(1492.76 139.428 3.30165e-20)
(1387.84 78.7363 3.4873e-20)
(1325.79 37.61 -1.03355e-20)
(1305.49 3.96367 -1.03858e-20)
(1330.25 -30.4374 1.92791e-17)
(1402.81 -73.176 -1.93438e-17)
(1519 -137.061 4.22687e-20)
(1633.02 -220.796 3.89036e-20)
(1706.5 -329.805 0)
(1767.26 -435.215 -5.4001e-17)
(1773.04 -588.819 6.25322e-17)
(1815.72 -739.013 0)
(1743.11 -919.139 -9.8335e-17)
(1535.49 -946.711 1.2072e-16)
(1119.56 -740.939 8.89618e-21)
(362.787 -103.892 -1.87264e-16)
(548.525 144.211 4.16003e-20)
(1281.83 771.134 0)
(1637.59 946.363 0)
(1787.02 917.861 -4.72704e-17)
(1815.81 780.473 4.59839e-17)
(1778.96 651.779 0)
(1785.76 510.205 5.85677e-17)
(1750.14 387.105 -5.26017e-17)
(1660.37 275.158 3.18902e-17)
(1554.42 179.179 -3.21547e-17)
(1465.57 103.33 1.77001e-17)
(1407.21 48.7388 -1.78201e-17)
(1391.94 2.07467 0)
(1413.62 -46.5069 -1.76473e-17)
(1481.06 -103.627 1.76927e-17)
(1580.68 -182.8 -3.47502e-20)
(1682.16 -273.623 -3.208e-20)
(1744.08 -395.743 5.17585e-20)
(1796.01 -508.937 4.95057e-17)
(1786.85 -656.862 -5.74251e-17)
(1826.93 -782.472 -4.59431e-20)
(1783.87 -927.802 -4.41539e-20)
(1632.66 -933.921 0)
(1243.15 -748.491 -7.14474e-20)
(511.599 -118.643 4.22272e-20)
(585.511 151.548 1.5938e-22)
(1351.86 705.818 0)
(1704.38 885.376 9.16357e-23)
(1787.12 913.734 3.98875e-20)
(1819.05 809.957 -8.56286e-23)
(1795.56 700.592 -5.18201e-17)
(1814.26 562.112 4.58779e-17)
(1785.68 437.915 0)
(1707.15 314.284 -5.91298e-20)
(1616.07 212.452 -1.08114e-22)
(1533.33 126.168 -1.13783e-22)
(1485.09 58.0071 6.87972e-20)
(1467.83 0.530042 0)
(1488.73 -56.5692 0)
(1546.05 -126.261 -1.13086e-22)
(1637.32 -216.829 -1.0696e-22)
(1726.07 -313.705 -2.63523e-17)
(1777.3 -444.862 7.51963e-17)
(1817.62 -559.851 -5.32646e-17)
(1802.88 -699.895 0)
(1834.84 -802.987 -4.39774e-17)
(1786.93 -916.439 4.38779e-17)
(1703.9 -878.518 9.19811e-23)
(1345.8 -685.837 6.15479e-20)
(585.749 -158.033 1.59147e-22)
(702.17 203.969 3.2828e-18)
(1468.53 685.606 1.3396e-17)
(1750.64 857.465 9.72985e-17)
(1795.32 900.839 -4.07656e-17)
(1831.92 810.612 4.25089e-17)
(1813.53 715.987 -4.77309e-17)
(1840.14 590.981 4.26984e-17)
(1811.24 471.501 -2.52092e-17)
(1741.78 347.119 2.47181e-17)
(1662.31 240.721 1.14945e-22)
(1595.85 144.238 1.20713e-22)
(1549.97 67.3059 -1.23328e-22)
(1537.21 0.796855 7.43147e-18)
(1554.01 -67.3252 7.25884e-18)
(1606.65 -146.507 -1.4856e-17)
(1682.22 -246.31 1.13974e-22)
(1762.17 -342.345 4.89415e-17)
(1806.45 -475.296 -9.53409e-17)
(1846.35 -586.223 4.87465e-17)
(1815.73 -721.351 0)
(1843.28 -804.872 -8.41959e-23)
(1797.15 -901.614 7.83161e-23)
(1746.25 -855.141 -8.3351e-23)
(1455.96 -675.608 -1.20988e-16)
(682.133 -198.601 1.49419e-16)
(744.871 221.575 1.4061e-19)
(1515.82 636.245 0)
(1770.76 801.532 0)
(1800.53 872.774 3.91417e-20)
(1839.61 798.332 8.1e-20)
(1834.85 727.777 0)
(1866.95 609.677 4.48827e-17)
(1839.62 492.444 -4.22756e-17)
(1777.24 363.088 4.43739e-20)
(1710.38 256.372 -4.76576e-20)
(1648.42 155.247 -1.37458e-17)
(1612.3 70.5595 1.37214e-17)
(1598.32 -3.43624 3.57144e-18)
(1615.66 -77.5591 -3.46815e-18)
(1659.57 -164.414 1.32493e-17)
(1728.84 -271.966 -3.7927e-17)
(1797.18 -372.189 2.4693e-17)
(1831.62 -507.812 -4.63439e-20)
(1864.9 -613.931 3.95201e-20)
(1835.63 -735.499 -4.04255e-17)
(1849.05 -799.235 8.94679e-19)
(1805.53 -868.232 -2.05984e-18)
(1771.38 -786.094 4.09635e-17)
(1477.88 -606.285 5.66183e-20)
(671.949 -202.273 6.91327e-20)
(741.945 208.237 1.3565e-16)
(1550.93 580.767 -1.08621e-16)
(1797.83 758.978 0)
(1817.47 846.312 -3.79646e-17)
(1856.17 786.98 3.70629e-19)
(1854.55 721.646 3.93051e-17)
(1889.51 617.633 4.16509e-17)
(1859.46 511.112 -3.99713e-17)
(1806.18 386.698 -4.70552e-20)
(1748.27 278.886 -2.45734e-17)
(1700.7 171.323 1.19232e-17)
(1664.96 81.7258 1.26374e-17)
(1654.67 1.0129 -5.38605e-20)
(1666.84 -80.8356 0)
(1706.79 -172.263 0)
(1761.63 -284.423 0)
(1825.1 -379.159 4.65228e-20)
(1855.46 -512.192 9.67614e-21)
(1891.4 -610.574 -4.96858e-20)
(1854.41 -722.479 0)
(1862.57 -782.454 3.85115e-20)
(1820.82 -842.28 9.37866e-21)
(1800.24 -755.164 -4.86004e-20)
(1561.98 -575.973 -1.06244e-16)
(783.911 -242.254 1.36831e-16)
(786.521 237.37 6.59526e-17)
(1574.9 519.17 -9.6268e-17)
(1814.27 676.436 8.22603e-17)
(1829.79 789.363 -4.11121e-17)
(1867.73 755.839 -3.75518e-17)
(1873.54 710.55 3.73336e-17)
(1911.31 620.096 1.92423e-17)
(1882.51 517.732 -1.89715e-17)
(1835.19 390.17 1.0828e-17)
(1788.04 284.214 -2.23952e-17)
(1742.14 175.741 1.73824e-17)
(1715.85 82.7725 -7.38019e-18)
(1704.36 -2.17463 1.48949e-18)
(1717.57 -87.4994 -4.371e-20)
(1750.14 -181.301 2.28606e-17)
(1801.32 -298.238 -2.28773e-17)
(1854.57 -395.966 3.87757e-20)
(1876.05 -526.694 3.79065e-17)
(1908.6 -617.256 -1.85647e-18)
(1869.85 -715.123 -3.81111e-17)
(1873.98 -757.176 0)
(1833.18 -788.531 4.13817e-17)
(1813.77 -681.433 -3.6679e-17)
(1578.24 -524.792 -1.03146e-16)
(808.933 -264.247 -9.55747e-19)
(912.966 268.732 -6.2614e-17)
(1641.52 477.366 4.81634e-17)
(1839.59 632 1.90761e-20)
(1845.56 749.347 -5.38769e-20)
(1889.98 739.885 1.82058e-20)
(1894.87 688.333 3.58341e-17)
(1932.93 600.13 -1.72315e-17)
(1897.28 510.922 -1.83593e-17)
(1858.2 393.958 4.15861e-20)
(1817.02 291.55 -4.41591e-20)
(1784.08 179.737 2.02725e-20)
(1757.31 85.2887 -2.06159e-20)
(1750.56 -3.21098 0)
(1759.44 -93.4918 5.27737e-21)
(1789.68 -189.654 -1.07129e-17)
(1828.3 -306.655 1.07737e-17)
(1878.59 -396.407 -1.93079e-17)
(1896.16 -523.147 9.80353e-19)
(1932.01 -600.737 1.80748e-17)
(1889.82 -691.494 -5.31756e-20)
(1890.17 -741.512 -3.69371e-17)
(1851.74 -745.82 3.48318e-17)
(1840.2 -633.906 0)
(1634.24 -475.811 -4.87601e-17)
(867.046 -265.975 6.2236e-17)
(924.538 270.156 0)
(1656.32 428.514 -4.26753e-17)
(1842.07 552.371 4.23734e-17)
(1866.44 669.235 1.77868e-20)
(1901.68 699.908 1.71299e-20)
(1914.89 667.581 -3.42476e-17)
(1946.98 596.742 3.41389e-17)
(1916.86 514.543 1.83334e-17)
(1884.07 396.174 8.1359e-19)
(1852.29 295.38 -1.96991e-17)
(1818.54 184.708 -2.14763e-20)
(1799.98 89.4594 2.41733e-20)
(1790.83 -0.82574 0)
(1800.29 -91.5634 4.34829e-20)
(1823.55 -185.737 -2.13994e-20)
(1860.73 -306.642 9.77085e-18)
(1902.45 -398.281 -9.6505e-18)
(1911.4 -519.772 -1.82937e-20)
(1942.95 -592.316 -1.92207e-20)
(1910.7 -668.468 1.73581e-20)
(1900.71 -702.46 -3.66728e-17)
(1869.49 -676.758 -6.8989e-18)
(1845.02 -571.235 3.37717e-17)
(1663.09 -434.493 0)
(944.252 -263.524 6.04694e-17)
(1029.22 286.715 -1.14342e-16)
(1693.92 396.961 4.47849e-17)
(1857.3 491.637 3.24401e-17)
(1890.39 623.689 -4.09856e-17)
(1919.55 672.669 0)
(1936.44 647.203 -2.05711e-21)
(1965.69 573.117 0)
(1929.22 496.911 -2.20259e-21)
(1903.13 391.386 -2.33585e-21)
(1874.51 296.421 0)
(1852.76 184.262 0)
(1832.81 89.182 -2.56833e-21)
(1828.49 -2.13573 0)
(1834.16 -95.594 0)
(1856.26 -190.856 -9.63549e-18)
(1882.07 -307.989 9.62619e-18)
(1923.86 -389.882 -2.31223e-21)
(1930.83 -506.268 -1.71678e-17)
(1962.82 -572.556 1.63618e-17)
(1931.07 -646.974 0)
(1917.96 -676.401 3.59015e-17)
(1892.38 -628.381 -7.34992e-17)
(1858.99 -507.991 7.25028e-17)
(1691.38 -399.255 3.54703e-18)
(1015.21 -274.054 -5.74005e-17)
(1082.78 276.526 1.3578e-20)
(1712.86 365.983 -1.04038e-20)
(1863.2 430.398 0)
(1907.75 534.95 0)
(1929.54 616.676 0)
(1954.71 616.359 7.64322e-21)
(1975.96 560.384 0)
(1944.88 488.65 -7.86839e-21)
(1926.04 383.349 0)
(1905.87 289.034 -8.49328e-21)
(1880.7 179.303 0)
(1868.09 87.0865 -2.35111e-18)
(1860.99 -3.74816 2.34558e-18)
(1868.17 -95.1652 0)
(1884.79 -185.624 9.19306e-18)
(1911.04 -306.536 -1.80637e-17)
(1943.97 -390.626 8.73361e-18)
(1943.39 -497.583 0)
(1973.24 -560.968 1.60278e-17)
(1949.28 -620.088 -1.57629e-17)
(1929.05 -620.881 3.59221e-17)
(1911.27 -545.507 -3.17252e-17)
(1861.86 -447.565 0)
(1708.59 -372.679 0)
(1097.62 -291.766 0)
(1129.64 268.544 -1.31693e-20)
(1736.12 345.002 1.02609e-20)
(1880.43 367.763 0)
(1924.99 466.088 0)
(1947.08 580.162 0)
(1972.32 597.314 -7.60337e-21)
(1995.45 537.13 0)
(1957.12 467.431 8.21753e-21)
(1943.62 374.406 0)
(1923.98 290.027 -8.79884e-18)
(1909.77 181.559 8.81093e-18)
(1894.54 89.8613 -8.40938e-21)
(1891.83 -0.432257 9.25622e-21)
(1894.86 -93.1682 8.40424e-21)
(1911.12 -183.13 0)
(1927.51 -296.907 0)
(1963.57 -370.391 8.50274e-21)
(1960.77 -474.879 -1.62421e-17)
(1993.39 -534.652 1.51474e-17)
(1967.2 -596.892 0)
(1943.97 -587.043 7.75857e-21)
(1927.82 -477.044 0)
(1879.81 -392.342 0)
(1736.03 -352.836 0)
(1141.58 -252.057 0)
(1155.72 237.798 -5.0644e-17)
(1747.26 312.583 4.17561e-17)
(1889.05 318.074 0)
(1934.43 379.626 -1.68651e-20)
(1957.6 517.335 0)
(1983.65 552.184 -1.4466e-17)
(2003.78 517.279 3.01901e-17)
(1971.67 456.704 -1.58211e-17)
(1963.2 363.452 -8.10801e-18)
(1951.8 278.272 8.33385e-18)
(1932.59 172.737 4.34722e-21)
(1924.08 85.8754 1.11109e-18)
(1918.14 -2.79898 -1.07323e-18)
(1923.54 -92.2897 8.47608e-18)
(1935.99 -176.592 -8.5298e-18)
(1953.73 -293.888 0)
(1980.16 -368.408 -1.51943e-20)
(1972.23 -464.539 0)
(2001.29 -521.069 0)
(1978.97 -558.269 -1.62887e-17)
(1955.49 -522.186 1.46092e-17)
(1937.4 -393.268 0)
(1887.43 -330.718 3.67404e-17)
(1738.24 -320.123 2.38041e-18)
(1132.88 -231.041 -1.02919e-16)
(1217.83 224.114 5.06347e-17)
(1774.13 291.834 1.92288e-20)
(1902.99 267.31 3.09763e-17)
(1935.34 319.459 -2.31935e-17)
(1969.1 475.044 -1.77322e-17)
(1997.1 521.383 0)
(2020.84 491.626 7.55445e-21)
(1984.15 429.06 1.51769e-17)
(1979.16 345.543 -1.58253e-17)
(1965.47 270.902 0)
(1956.38 169.77 0)
(1944.77 84.5049 -2.59455e-20)
(1943.69 -2.60163 3.21254e-20)
(1945.12 -93.0632 1.69454e-20)
(1957.57 -175.539 4.07312e-18)
(1967.04 -281.862 -4.04044e-18)
(1999.06 -347.314 8.41205e-21)
(1990.9 -441.638 1.55514e-17)
(2020.37 -492.193 -2.91422e-17)
(1994.06 -524.209 1.40202e-17)
(1968.06 -482.367 -1.48653e-20)
(1940.66 -316.856 0)
(1904.14 -281.432 1.68996e-20)
(1752.99 -296.721 4.06981e-17)
(1155.25 -204.927 -1.01429e-16)
(1221.91 186.086 -4.97689e-17)
(1774 259.163 -3.80438e-17)
(1904.6 233.074 3.48816e-17)
(1922.62 240.052 1.45465e-17)
(1976.98 391.421 -1.84067e-17)
(2004.95 461.391 0)
(2027.22 463.33 3.66951e-21)
(1997.16 418.04 -1.10121e-20)
(1997.35 338.099 7.55887e-18)
(1990.93 261.323 -1.55769e-17)
(1975.68 163.174 7.89691e-18)
(1969.91 83.1694 1.97311e-18)
(1965.19 -1.31971 -1.85884e-18)
(1969.21 -86.7199 1.83567e-18)
(1978.13 -163.068 -1.9778e-18)
(1989.74 -273.905 0)
(2013.06 -339.472 1.12485e-20)
(2000.19 -423.827 -3.5692e-21)
(2025.18 -471.077 -1.49591e-17)
(2001.8 -472.217 1.36833e-17)
(1976.51 -401.105 0)
(1932.03 -255.481 0)
(1910.54 -231.568 -4.08811e-21)
(1766.58 -265.372 -3.99897e-17)
(1213.27 -196.764 -1.41053e-18)
(1264.62 170.757 -2.34083e-17)
(1789.47 242.969 1.94704e-17)
(1918.31 210.441 4.10422e-21)
(1924.74 181.382 0)
(1985.45 313.515 1.34681e-17)
(2017.41 419.818 -1.62261e-17)
(2038.46 435.566 3.42342e-21)
(2009.95 385.868 3.66004e-21)
(2012.47 316.935 1.40615e-20)
(2001.11 251.427 -1.8922e-18)
(1994.95 159.041 9.50935e-19)
(1986.05 80.8938 1.88301e-18)
(1986.14 -1.84605 -9.60602e-19)
(1986.21 -88.0186 3.84342e-18)
(1996.1 -161.806 -3.79972e-18)
(2000.85 -260.589 0)
(2031.72 -318.944 1.02067e-20)
(2018.58 -399.188 -1.51236e-17)
(2038.72 -437.743 1.32871e-17)
(2015.48 -428.418 3.4713e-21)
(1984.92 -338.958 0)
(1926.54 -178.691 0)
(1928.53 -207.257 4.11091e-21)
(1785.69 -246.807 -3.91985e-17)
(1249.56 -189.398 4.72716e-17)
(1298.47 144.536 2.3382e-20)
(1798.11 210.227 0)
(1928.85 184.537 -7.80971e-21)
(1929.51 121.549 -1.45428e-17)
(1979.85 237.688 1.77009e-17)
(2018.27 348.695 -1.31156e-17)
(2039.94 390.542 1.52684e-17)
(2018.97 369.304 -7.00188e-18)
(2027.52 306.775 7.33805e-18)
(2024.01 239.666 -3.63066e-18)
(2011.01 148.993 3.70282e-18)
(2007.37 75.7672 -1.81362e-18)
(2003.84 -3.44887 2.08793e-18)
(2006.69 -83.7143 -2.45529e-19)
(2013.95 -152.663 3.69842e-18)
(2021.67 -255.23 -7.29373e-18)
(2042.91 -309.81 -3.77526e-18)
(2026.04 -377.726 7.00575e-18)
(2041.38 -405.439 1.35604e-20)
(2018.38 -361.857 -7.01749e-21)
(1985.93 -240.223 0)
(1934.8 -137.168 0)
(1937.78 -182.172 0)
(1799.19 -212.376 -1.92536e-17)
(1287.3 -166.95 2.27913e-17)
(1320.19 140.901 -2.78637e-21)
(1806.51 193.234 0)
(1946.26 168.485 9.83002e-21)
(1933.87 89.171 -7.96955e-21)
(1959.51 154.176 -7.2335e-21)
(2027.25 289.317 0)
(2046.99 352.268 -6.64834e-21)
(2030.81 333.264 6.83325e-18)
(2040.62 284.698 -7.28623e-18)
(2031.23 230.102 0)
(2027.35 147.534 1.69936e-21)
(2020.42 76.3141 0)
(2021.16 -0.664694 0)
(2020.12 -81.5206 1.80515e-18)
(2028.34 -147.127 -1.79321e-18)
(2029.2 -237.524 -7.23814e-21)
(2059.86 -285.964 -1.65746e-21)
(2041.32 -346.904 6.98616e-21)
(2047.56 -357.353 -7.53885e-18)
(2028.61 -314.955 6.37331e-18)