/*--------------------------------*- C++ -*----------------------------------*\
| =========                 |                                                 |
| \\      /  F ield         | OpenFOAM: The Open Source CFD Toolbox           |
|  \\    /   O peration     | Version:  2112                                  |
|   \\  /    A nd           | Website:  www.openfoam.com                      |
|    \\/     M anipulation  |                                                 |
\*---------------------------------------------------------------------------*/
FoamFile
{
    version     2.0;
    format      ascii;
    arch        "LSB;label=32;scalar=64";
    class       volScalarField;
    location    "0.00288";
    object      nut;
}
// * * * * * * * * * * * * * * * * * * * * * * * * * * * * * * * * * * * * * //

dimensions      [0 2 -1 0 0 0 0];

internalField   nonuniform List<scalar> 
13875
(
0.0511667
0.0366241
0.0343765
0.0343197
0.0342605
0.0343257
0.0343269
0.0343098
0.0342886
0.0342814
0.0343031
0.0342851
0.034314
0.034339
0.0343039
0.0342687
0.0343008
0.0342996
0.0343268
0.0343318
0.0342711
0.0343302
0.034386
0.0365579
0.0514343
0.0532611
0.0341193
0.032233
0.0320984
0.0320205
0.0320633
0.0320579
0.0320421
0.0320311
0.0320383
0.0320622
0.0320432
0.0320566
0.0320838
0.0320569
0.0320303
0.0320536
0.0320422
0.0320602
0.0320691
0.0320275
0.0320976
0.032232
0.0340485
0.0536493
0.0564567
0.033562
0.0318135
0.0315838
0.0315142
0.0315538
0.0315439
0.0315193
0.0314575
0.031465
0.0314959
0.0314897
0.0315438
0.0315685
0.0314989
0.0314585
0.0314791
0.0315004
0.0315424
0.0315595
0.0315198
0.0315734
0.0317976
0.0334949
0.0566048
0.0590714
0.0332332
0.0314997
0.031267
0.0312083
0.0312429
0.03123
0.0312031
0.0311204
0.0311268
0.0311607
0.0311647
0.0312218
0.0312485
0.0311723
0.031121
0.0311393
0.0311854
0.0312276
0.031248
0.0312123
0.0312554
0.0314876
0.0331737
0.0591502
0.0611281
0.0330046
0.0312563
0.0309926
0.0309324
0.0309617
0.0309474
0.0309175
0.030832
0.0308369
0.0308694
0.030875
0.0309337
0.03096
0.0308828
0.030833
0.0308501
0.0308992
0.0309437
0.030966
0.030935
0.0309824
0.0312333
0.032925
0.0612592
0.0628231
0.0328497
0.0311002
0.0307614
0.0307008
0.0307189
0.030699
0.030663
0.0305737
0.0305744
0.0306047
0.0306131
0.0306731
0.0307025
0.0306209
0.0305714
0.0305891
0.0306442
0.0306944
0.0307232
0.0307029
0.0307552
0.0310622
0.0328281
0.0629701
0.0648338
0.0330758
0.0311153
0.0306249
0.0305217
0.0305175
0.0304844
0.0304392
0.0303475
0.0303416
0.0303689
0.030381
0.0304397
0.0304736
0.0303885
0.0303388
0.0303602
0.0304227
0.0304812
0.0305204
0.0305246
0.0306298
0.0311194
0.0330775
0.0648665
0.0671212
0.0339491
0.0314436
0.0306517
0.0304513
0.0303911
0.0303277
0.030264
0.0301677
0.0301483
0.0301705
0.030186
0.0302437
0.0302836
0.0301959
0.0301439
0.0301741
0.0302471
0.0303228
0.0303896
0.0304459
0.030641
0.0314009
0.033903
0.0673696
0.0736843
0.036313
0.0320685
0.0308654
0.0304719
0.0303485
0.0302448
0.0301548
0.0300522
0.0300178
0.0300319
0.0300498
0.0301069
0.0301529
0.0300649
0.0300121
0.0300532
0.0301367
0.0302387
0.0303425
0.0304678
0.0308243
0.0319575
0.0360271
0.0742384
0.0830537
0.0385415
0.0327969
0.0312033
0.0306837
0.0304301
0.0302733
0.0301516
0.030047
0.0300053
0.0300089
0.0300247
0.0300799
0.0301293
0.030052
0.0300046
0.030046
0.0301331
0.0302604
0.0304176
0.030663
0.0311639
0.0326777
0.038165
0.0835811
0.09075
0.0442111
0.034749
0.0322117
0.0311433
0.0307375
0.0305045
0.0303432
0.0302354
0.0301889
0.0301811
0.0301877
0.030239
0.0302867
0.0302321
0.0301998
0.0302375
0.0303247
0.0304812
0.0307004
0.0311136
0.0321187
0.0345557
0.043439
0.0895164
0.0946885
0.0551856
0.0412029
0.0340787
0.0325482
0.0316129
0.0311551
0.0309305
0.030798
0.0307383
0.0307173
0.0307071
0.0307471
0.0307959
0.0307681
0.0307641
0.0308155
0.03093
0.0311441
0.031583
0.0324527
0.0337853
0.0405378
0.0539562
0.0943334
0.0864438
0.0662964
0.0563296
0.04324
0.0358239
0.0334595
0.0328333
0.0325019
0.0323861
0.0323139
0.0322853
0.0322695
0.0322952
0.0323433
0.0323407
0.0323603
0.0324362
0.0325572
0.0328692
0.0336144
0.0362228
0.0431945
0.0539115
0.0666529
0.0866971
0.0794406
0.0647225
0.0609907
0.07281
0.0458491
0.0411149
0.0390062
0.0372234
0.0366511
0.0364127
0.0363575
0.0363035
0.0363896
0.036409
0.0364649
0.0365381
0.0368516
0.0375013
0.0394162
0.0420913
0.0479849
0.0703963
0.0598066
0.0656236
0.0819122
0.0755363
0.0641891
0.0595112
0.0668574
0.0590701
0.0549272
0.0558576
0.050795
0.0489094
0.0482175
0.048086
0.0480238
0.0478196
0.0479745
0.0481547
0.0482255
0.0489466
0.051101
0.0570101
0.0554863
0.0591217
0.0662321
0.0587746
0.0647284
0.0755517
0.0682495
0.0636678
0.0608897
0.0676525
0.0666369
0.0766189
0.0756313
0.0661266
0.0682182
0.0696103
0.0702609
0.0706378
0.0702
0.0703434
0.0702952
0.0697891
0.0676234
0.0653401
0.0742278
0.0785305
0.0673142
0.067763
0.0597575
0.0636807
0.0682037
0.0659602
0.0650975
0.0647954
0.0723919
0.0722788
0.083884
0.0747347
0.0627878
0.0645191
0.0643883
0.0654965
0.0654152
0.0654789
0.0652325
0.0656682
0.064766
0.0640471
0.0621227
0.0722049
0.086878
0.073031
0.0722574
0.0645023
0.0649776
0.0663266
0.0622636
0.0689661
0.0701323
0.0706196
0.0690814
0.0792332
0.0730194
0.0629087
0.0629632
0.0625995
0.0629733
0.0625751
0.0627094
0.0624501
0.0631508
0.0628899
0.0626096
0.0627206
0.0721202
0.0803827
0.0692347
0.0708281
0.0702511
0.0691017
0.0623617
0.0558028
0.0709712
0.0720016
0.0686504
0.0652182
0.0712407
0.0719386
0.0661234
0.0634726
0.0617655
0.0610158
0.0602362
0.060225
0.0600263
0.0609841
0.0615935
0.0627705
0.0654686
0.071791
0.0721605
0.0651345
0.0687304
0.0716353
0.0716231
0.0568194
0.0529624
0.0713674
0.0690148
0.0660835
0.0628658
0.0662647
0.0696979
0.0676676
0.0643799
0.0614644
0.0596065
0.0582678
0.0580308
0.0581219
0.0595573
0.0612805
0.0639271
0.0673831
0.0697618
0.0667184
0.0629968
0.0662881
0.0688848
0.0703521
0.0523785
0.0621106
0.067299
0.0651991
0.063063
0.0605562
0.0632506
0.0673955
0.067065
0.0640029
0.0606201
0.0580409
0.0561894
0.0557805
0.0561836
0.058132
0.0606258
0.0638262
0.0669814
0.0674968
0.0636274
0.0608843
0.0633984
0.0647269
0.0660007
0.0608737
0.0784266
0.0699365
0.0629523
0.0608772
0.0587045
0.0611406
0.0651763
0.0655642
0.0628399
0.059263
0.0562407
0.0540406
0.0534803
0.0540854
0.0563585
0.0592845
0.0626714
0.0654493
0.0652963
0.0616176
0.0591081
0.061211
0.0621752
0.0686585
0.0781341
0.0925121
0.0756694
0.0616734
0.058733
0.0569569
0.0592074
0.063011
0.0636656
0.0611839
0.0575721
0.0543053
0.05189
0.0512176
0.0518787
0.0543087
0.0574434
0.060843
0.0634182
0.0631012
0.0596939
0.0573052
0.0589506
0.0607024
0.0744186
0.0933135
0.101782
0.077174
0.0600925
0.0568146
0.0553208
0.0571898
0.0608214
0.0616153
0.059129
0.0554863
0.052182
0.0497238
0.0490535
0.0497701
0.0522469
0.0554169
0.058789
0.0613589
0.0609058
0.0576107
0.0557805
0.0571897
0.0594259
0.0757932
0.101002
0.10762
0.0778713
0.0587656
0.0553174
0.0538896
0.0554031
0.0587524
0.0594987
0.057065
0.0534747
0.0501484
0.0477005
0.0470509
0.0477668
0.050234
0.0534355
0.056742
0.0592108
0.0588082
0.0557704
0.0543436
0.0557484
0.0583935
0.0771723
0.106831
0.114104
0.0787628
0.0580546
0.054246
0.0527016
0.0539175
0.056822
0.0573458
0.054972
0.0515105
0.048257
0.0458433
0.0451955
0.0458955
0.0482789
0.0513867
0.0545355
0.056914
0.0567691
0.0542443
0.0530863
0.0546155
0.0577672
0.0780499
0.113915
0.121025
0.079496
0.0575246
0.0534344
0.0517777
0.0526654
0.0549519
0.0551241
0.0528142
0.0495267
0.0463987
0.0441206
0.0435062
0.0441969
0.0465098
0.0495276
0.0525372
0.0548062
0.0549213
0.0529584
0.052137
0.0538901
0.0575269
0.0796422
0.119623
0.126807
0.0807274
0.0574041
0.0527629
0.0511166
0.051631
0.0532679
0.053083
0.0508274
0.0477169
0.0447445
0.0425708
0.041967
0.0426406
0.0448359
0.0476827
0.0505115
0.0527087
0.0531537
0.0518869
0.0514605
0.0532013
0.0573935
0.0804182
0.126459
0.134135
0.0814018
0.0572887
0.0521357
0.0505524
0.050766
0.0517422
0.0512217
0.049011
0.0460507
0.0432232
0.0411599
0.0405648
0.041209
0.0432458
0.0459218
0.0485983
0.050729
0.051488
0.0509402
0.0508625
0.0525407
0.0572611
0.0801959
0.133431
0.141211
0.0815684
0.0572215
0.0515507
0.0499458
0.0499381
0.0502639
0.049356
0.0471448
0.0443682
0.0417535
0.0398555
0.0392897
0.0399371
0.0418826
0.044393
0.0469199
0.0490379
0.0500796
0.0501001
0.0502513
0.0519915
0.0573634
0.0811376
0.139762
0.144626
0.0819758
0.057502
0.0512108
0.0493181
0.0490978
0.0489587
0.0477849
0.045573
0.0429174
0.0404557
0.0386761
0.0381306
0.0387609
0.0405559
0.042911
0.0453305
0.0474407
0.0487245
0.0491997
0.0495656
0.0516179
0.0575219
0.0815496
0.145076
0.148159
0.0829402
0.0579344
0.051198
0.048712
0.0482651
0.0477882
0.0463592
0.0441396
0.041596
0.039295
0.0376153
0.0370777
0.037696
0.0393686
0.0415626
0.0438794
0.0459867
0.0474979
0.0482969
0.0489273
0.0515016
0.057885
0.0821413
0.148073
0.152055
0.0830583
0.058741
0.0513518
0.0482095
0.0473864
0.0466096
0.044996
0.0427902
0.0403524
0.0381812
0.036628
0.0361182
0.0367351
0.0383109
0.0404017
0.0426548
0.0447362
0.046382
0.0474107
0.0484033
0.0515977
0.0585906
0.083225
0.151335
0.154819
0.0834704
0.0596983
0.0518444
0.0478734
0.0466055
0.0455345
0.0438052
0.0416002
0.03926
0.0372259
0.0357537
0.0352468
0.0358538
0.0373321
0.0392902
0.041462
0.0435501
0.0452884
0.0465975
0.0480334
0.051947
0.0597991
0.0836657
0.154695
0.157633
0.0845749
0.0600768
0.0525016
0.0477928
0.0459019
0.0445278
0.0427304
0.0405694
0.0383134
0.0363479
0.0349532
0.0344562
0.035047
0.0364339
0.0383224
0.0404223
0.042471
0.0442537
0.045863
0.0479334
0.0526497
0.0606903
0.0841547
0.156855
0.160451
0.0845473
0.0599449
0.0531828
0.0479523
0.0453405
0.043611
0.0416891
0.0395488
0.0373854
0.0355413
0.0342245
0.0337388
0.034333
0.0356693
0.0374583
0.0394806
0.0415093
0.0433681
0.0453083
0.0480759
0.0535226
0.0608371
0.0853442
0.159027
0.162159
0.0849321
0.0598893
0.0544284
0.0483444
0.0450177
0.0428298
0.0407873
0.0386774
0.0366003
0.0348203
0.0335607
0.0330842
0.033667
0.0349208
0.0366528
0.0385919
0.0405885
0.0425512
0.0449385
0.048401
0.0547653
0.0605781
0.085194
0.161371
0.164094
0.0855766
0.0598315
0.0553549
0.0490815
0.0449322
0.0422622
0.0400113
0.0378727
0.0358551
0.0341714
0.0329633
0.0324906
0.033065
0.0342523
0.035884
0.0377697
0.0398076
0.0419793
0.0448211
0.0491605
0.0556807
0.06024
0.0851817
0.163176
0.166151
0.0854671
0.0591504
0.0553513
0.0499407
0.0450012
0.0418977
0.0393333
0.0371298
0.0351668
0.0335483
0.0323979
0.0319447
0.0325123
0.0336448
0.0352273
0.0370728
0.0391766
0.0416557
0.0448992
0.0501629
0.0559129
0.0596939
0.0855797
0.165195
0.167506
0.0857875
0.0584003
0.0552527
0.0515369
0.0454269
0.0417566
0.0388717
0.0365052
0.0345576
0.0330035
0.0318971
0.0314433
0.031997
0.0330759
0.034588
0.0364259
0.038711
0.0414953
0.0452444
0.051754
0.0557493
0.0587583
0.0856279
0.167043
0.168945
0.0867889
0.057953
0.0548955
0.0526458
0.0462406
0.0417949
0.0386177
0.0360338
0.0340402
0.0325025
0.0314299
0.0309811
0.0315118
0.0325503
0.0340373
0.0359315
0.0384431
0.0415416
0.0461597
0.0528891
0.0553428
0.0579821
0.0862083
0.168225
0.170291
0.0872985
0.057299
0.0542166
0.0526679
0.0475565
0.0420214
0.0384663
0.0357025
0.0335947
0.0320439
0.031001
0.0305559
0.0310851
0.0320974
0.0335995
0.0356169
0.0383292
0.0419671
0.0478451
0.0528186
0.0547252
0.0578542
0.0877612
0.169551
0.171043
0.0882541
0.0570504
0.0534877
0.0522972
0.0491551
0.0427978
0.0385058
0.0355667
0.0332504
0.0316554
0.0306074
0.0301631
0.030686
0.0316866
0.0332489
0.0354506
0.0383321
0.042887
0.0493427
0.0523551
0.0539333
0.0573561
0.088403
0.170675
0.171848
0.0899959
0.0574197
0.0529065
0.0517003
0.0497123
0.0442858
0.0388327
0.035497
0.0330512
0.0313714
0.0302788
0.0298151
0.0303489
0.031395
0.0330526
0.0353645
0.038669
0.0447379
0.0497959
0.0516293
0.0532573
0.0573219
0.0894416
0.171351
0.172892
0.0905722
0.0573273
0.0523382
0.0509503
0.0494775
0.0464964
0.0396606
0.0355537
0.0329861
0.0312258
0.030035
0.0295411
0.0301069
0.0312485
0.0329992
0.0354619
0.039809
0.0466597
0.0495115
0.0508459
0.0527546
0.0578395
0.0910164
0.172046
0.173322
0.0917816
0.0579024
0.0519695
0.0502678
0.049111
0.047725
0.0418695
0.0359148
0.0329828
0.0311925
0.0299329
0.0293699
0.0299988
0.0311987
0.0329831
0.0358377
0.0418001
0.0472438
0.0490331
0.0501732
0.0523097
0.0580905
0.0917198
0.172852
0.173686
0.0933495
0.0587551
0.0518476
0.0497775
0.0486251
0.0475396
0.0440671
0.0372337
0.0331061
0.0311693
0.0299034
0.0292894
0.0299636
0.0311819
0.0331009
0.0370947
0.0439109
0.047089
0.0484479
0.0496724
0.052083
0.0585528
0.0926323
0.17311
0.173384
0.0938264
0.059128
0.0517604
0.0493732
0.0480996
0.0471654
0.0448839
0.0394933
0.0336417
0.0312001
0.0298881
0.02927
0.0299524
0.0312497
0.0337799
0.0395369
0.0447496
0.046785
0.047937
0.0493127
0.0520784
0.0594019
0.0938854
0.17247
0.171734
0.0940585
0.0595746
0.0517549
0.0491039
0.0476647
0.0466375
0.0448307
0.0416583
0.0351056
0.0314512
0.0299103
0.0292831
0.0299738
0.0315342
0.0352769
0.0414599
0.0446952
0.046331
0.0475044
0.0490651
0.052038
0.0597396
0.0938389
0.170865
0.165515
0.0930022
0.0599534
0.0517133
0.0488938
0.0473089
0.0461112
0.0445706
0.0424421
0.0375906
0.0323664
0.0300934
0.0294033
0.0301456
0.0324882
0.0376425
0.0420048
0.0444196
0.0458679
0.0471753
0.0488617
0.0519307
0.0598957
0.0923448
0.164825
0.113302
0.267031
0.326276
0.341244
0.344623
0.346457
0.348453
0.351233
0.354779
0.359113
0.364342
0.370213
0.376454
0.382727
0.388751
0.394358
0.399164
0.402105
0.397759
0.36743
0.342109
0.335086
0.333564
0.333139
0.332962
0.332853
0.332612
0.330853
0.31315
0.145972
0.0930595
0.262947
0.32738
0.344123
0.347809
0.349906
0.352349
0.355767
0.360007
0.364995
0.37078
0.377204
0.384156
0.391429
0.398926
0.40654
0.414244
0.421675
0.428732
0.42682
0.378277
0.339737
0.330916
0.329398
0.328995
0.328811
0.328213
0.323308
0.288367
0.117561
0.0924229
0.267344
0.328211
0.343588
0.34674
0.349173
0.352194
0.356393
0.361385
0.36701
0.37321
0.379924
0.387163
0.3949
0.403078
0.411276
0.419295
0.427098
0.434236
0.440043
0.431725
0.371652
0.336082
0.329083
0.327893
0.327505
0.326552
0.319574
0.276564
0.106428
0.093645
0.268333
0.326888
0.341371
0.344489
0.347582
0.351413
0.356647
0.362615
0.369091
0.375866
0.383062
0.39071
0.398545
0.406601
0.415013
0.423513
0.431391
0.438515
0.444598
0.448689
0.432535
0.362524
0.331604
0.326456
0.325512
0.324308
0.316495
0.271205
0.102617
0.0932762
0.268278
0.326618
0.340947
0.344384
0.34812
0.352653
0.358809
0.365789
0.373149
0.380418
0.387916
0.3959
0.403908
0.411936
0.419807
0.427702
0.435848
0.443253
0.449211
0.454597
0.457173
0.428504
0.353064
0.328166
0.324562
0.322941
0.314769
0.269017
0.101003
0.0931619
0.269629
0.327159
0.341238
0.345239
0.349774
0.355256
0.362317
0.370147
0.378284
0.38608
0.393709
0.401768
0.409836
0.417688
0.425317
0.432798
0.440249
0.447719
0.454433
0.459938
0.465276
0.465202
0.417931
0.344251
0.325977
0.322649
0.314053
0.268025
0.0999242
0.0935429
0.271747
0.328746
0.342612
0.347381
0.352809
0.359393
0.367493
0.376107
0.384677
0.392626
0.400118
0.40803
0.415972
0.423663
0.430983
0.438078
0.445049
0.452261
0.459473
0.465742
0.471215
0.476528
0.47144
0.400676
0.336676
0.323681
0.313892
0.267396
0.0989941
0.0942522
0.274545
0.330998
0.34499
0.350712
0.35732
0.365066
0.374088
0.383372
0.392314
0.400305
0.407295
0.414502
0.421901
0.429645
0.436686
0.443587
0.450326
0.457135
0.464285
0.471273
0.477245
0.483007
0.487839
0.473339
0.380283
0.330021
0.314418
0.26696
0.0981548
0.0949717
0.277513
0.333673
0.348222
0.355219
0.363138
0.372111
0.381842
0.391544
0.400488
0.408329
0.415006
0.421043
0.427723
0.435241
0.442258
0.449041
0.45568
0.46226
0.469073
0.47624
0.48311
0.489127
0.495246
0.498325
0.464935
0.359772
0.317739
0.266887
0.0974179
0.0955401
0.280547
0.336743
0.352271
0.360935
0.37024
0.380204
0.390289
0.399792
0.408417
0.415736
0.421897
0.427148
0.433005
0.439878
0.447132
0.453856
0.460514
0.467086
0.473701
0.48078
0.488199
0.495142
0.501515
0.507814
0.506586
0.441106
0.335911
0.268226
0.0968295
0.0960699
0.28395
0.340403
0.35717
0.367617
0.378055
0.388484
0.398409
0.407008
0.414448
0.420957
0.426566
0.431352
0.436615
0.442835
0.450132
0.457103
0.463959
0.470783
0.477549
0.484688
0.492391
0.500301
0.507506
0.514372
0.520403
0.509068
0.398875
0.277125
0.0965549
0.096533
0.287968
0.344708
0.362168
0.372917
0.383149
0.393025
0.402326
0.410014
0.416585
0.422245
0.427376
0.432077
0.436878
0.442706
0.449913
0.45755
0.464855
0.472259
0.479647
0.487276
0.495335
0.503938
0.512443
0.520083
0.527403
0.53097
0.492524
0.315382
0.0973521
0.0972307
0.293099
0.349504
0.366143
0.37537
0.383934
0.392158
0.400298
0.407117
0.412971
0.417898
0.422632
0.427408
0.431815
0.437957
0.445357
0.453985
0.462126
0.47048
0.478954
0.487554
0.496355
0.505654
0.515266
0.524412
0.532491
0.539125
0.531505
0.408479
0.102647
0.0979091
0.299038
0.353729
0.367209
0.372578
0.378014
0.383823
0.390549
0.396447
0.401908
0.406567
0.411217
0.41617
0.421235
0.427656
0.435815
0.445493
0.455049
0.464735
0.474675
0.484618
0.494672
0.505013
0.515685
0.526377
0.535956
0.543605
0.544879
0.488099
0.124031
0.099237
0.305516
0.355266
0.362307
0.361742
0.363435
0.366597
0.371587
0.376649
0.381806
0.386697
0.391941
0.397977
0.404274
0.411131
0.420534
0.431498
0.443017
0.454418
0.466194
0.477848
0.489647
0.501442
0.513368
0.525509
0.537045
0.546271
0.550704
0.520522
0.155788
0.100524
0.31043
0.350869
0.348643
0.341461
0.339089
0.339481
0.342908
0.347312
0.352382
0.358064
0.364446
0.372026
0.380073
0.388379
0.399055
0.411581
0.425501
0.438981
0.452925
0.466724
0.480634
0.494262
0.507823
0.521495
0.534837
0.545671
0.55484
0.542055
0.183995
0.102899
0.310522
0.336405
0.324453
0.311107
0.30553
0.303723
0.305928
0.309912
0.315418
0.322123
0.329781
0.339206
0.349039
0.359399
0.371438
0.385904
0.402317
0.41819
0.434526
0.450819
0.467038
0.482854
0.498504
0.514101
0.529016
0.543313
0.560899
0.572096
0.211002
0.104892
0.302492
0.311045
0.290959
0.273362
0.265598
0.262651
0.264298
0.268382
0.274142
0.281537
0.290484
0.301441
0.313078
0.325473
0.338788
0.355222
0.37382
0.392194
0.410963
0.429921
0.448569
0.466971
0.485153
0.503047
0.518747
0.538843
0.56918
0.613647
0.225232
0.107905
0.283913
0.275416
0.250604
0.232276
0.224721
0.222047
0.223831
0.2275
0.232853
0.240734
0.250484
0.262328
0.275224
0.289103
0.303066
0.320802
0.341116
0.361806
0.382827
0.404283
0.425522
0.446627
0.46759
0.488161
0.507015
0.532758
0.581492
0.652475
0.229647
0.109999
0.257752
0.236984
0.211426
0.196151
0.190509
0.189089
0.189772
0.192302
0.197701
0.205204
0.21447
0.225715
0.237917
0.251352
0.2659
0.284028
0.305732
0.328333
0.35139
0.375021
0.39882
0.422484
0.445985
0.469261
0.492527
0.526108
0.599159
0.674139
0.2301
0.11363
0.226118
0.200961
0.180655
0.173641
0.170509
0.168271
0.167763
0.169339
0.17329
0.178857
0.185796
0.1944
0.205349
0.218009
0.23233
0.249782
0.271473
0.29447
0.318475
0.343563
0.369286
0.395229
0.42102
0.446503
0.474688
0.518002
0.622717
0.663427
0.227858
0.117431
0.200842
0.18009
0.17305
0.173165
0.170127
0.166182
0.162519
0.160905
0.161203
0.163421
0.167022
0.173087
0.181912
0.192846
0.205553
0.221262
0.241163
0.26292
0.28633
0.311753
0.338379
0.365839
0.393454
0.42052
0.453778
0.509639
0.645331
0.628006
0.224196
0.125492
0.185687
0.184123
0.191744
0.194868
0.188353
0.181834
0.17335
0.165769
0.160534
0.159205
0.159811
0.162493
0.167851
0.175815
0.185814
0.19871
0.21595
0.235425
0.256982
0.281385
0.307832
0.335684
0.364312
0.393681
0.430837
0.501455
0.65943
0.578635
0.220586
0.135231
0.205154
0.211392
0.222957
0.223613
0.218065
0.211398
0.196542
0.181589
0.170277
0.164667
0.162055
0.160912
0.16215
0.166222
0.172998
0.181287
0.195036
0.211865
0.231524
0.253988
0.279208
0.306386
0.335009
0.365962
0.407729
0.495399
0.661805
0.533275
0.217665
0.158001
0.207117
0.218995
0.255953
0.257508
0.249171
0.243911
0.228079
0.206991
0.188442
0.177121
0.171138
0.166798
0.163741
0.163144
0.165216
0.169254
0.179451
0.193279
0.210524
0.230693
0.253863
0.279402
0.307117
0.338799
0.386054
0.491938
0.649785
0.497407
0.215001
0.145971
0.31315
0.330853
0.332612
0.332853
0.332962
0.333138
0.333556
0.335042
0.341877
0.366658
0.397223
0.401782
0.398883
0.394101
0.388515
0.382513
0.376264
0.370045
0.364196
0.358985
0.35467
0.35114
0.348373
0.346386
0.344559
0.341186
0.326232
0.267016
0.11329
0.11756
0.288367
0.323308
0.328213
0.328811
0.328993
0.32939
0.330869
0.339418
0.377091
0.426112
0.428373
0.421361
0.413955
0.406274
0.398681
0.391205
0.383953
0.377021
0.370618
0.364854
0.359886
0.355666
0.352263
0.34983
0.34774
0.344062
0.327342
0.262968
0.093076
0.106427
0.276563
0.319573
0.326552
0.327504
0.327887
0.329048
0.335811
0.37049
0.430788
0.439587
0.433865
0.426759
0.418984
0.410987
0.402814
0.394655
0.386938
0.379717
0.373025
0.366846
0.361245
0.356276
0.352097
0.349089
0.346664
0.343519
0.328161
0.267328
0.0923933
0.102616
0.271205
0.316494
0.324307
0.325507
0.32643
0.331393
0.361412
0.431219
0.448136
0.444158
0.438115
0.431026
0.423175
0.4147
0.406305
0.398266
0.390453
0.382825
0.375652
0.368899
0.36245
0.356508
0.351296
0.347484
0.344402
0.341296
0.326833
0.268351
0.0936644
0.101004
0.269018
0.314768
0.322937
0.324543
0.328016
0.352104
0.426764
0.456534
0.454116
0.448751
0.442829
0.435459
0.427338
0.419462
0.411611
0.403602
0.395617
0.38765
0.380173
0.37293
0.365594
0.358641
0.352521
0.348014
0.344291
0.340862
0.326541
0.26823
0.0932663
0.0999235
0.268023
0.31405
0.322636
0.32588
0.343463
0.415825
0.464435
0.464767
0.45944
0.453961
0.447282
0.439837
0.432407
0.424947
0.417339
0.409504
0.401459
0.393399
0.385768
0.378013
0.36992
0.362141
0.355113
0.349657
0.345139
0.341146
0.327074
0.269555
0.0930964
0.0989944
0.267396
0.313884
0.323622
0.336105
0.398396
0.47044
0.476005
0.47071
0.465241
0.459009
0.451821
0.444625
0.437672
0.430597
0.4233
0.415624
0.407707
0.399747
0.392336
0.384445
0.375904
0.367316
0.359243
0.352689
0.347281
0.342523
0.328672
0.271729
0.0935939
0.0981551
0.266954
0.314383
0.329665
0.378327
0.471964
0.487311
0.482533
0.476751
0.470803
0.463843
0.456714
0.449923
0.443201
0.436318
0.429301
0.421568
0.414187
0.407052
0.400089
0.392108
0.383188
0.373929
0.364927
0.357206
0.350625
0.34491
0.330919
0.27447
0.0942035
0.0974165
0.266866
0.317542
0.358329
0.462658
0.497732
0.494819
0.488671
0.482651
0.475816
0.468674
0.461881
0.455328
0.448712
0.441944
0.434958
0.427446
0.420831
0.414831
0.408176
0.400339
0.391389
0.381729
0.372015
0.363069
0.355168
0.348182
0.333652
0.277516
0.0949683
0.0968255
0.268129
0.334957
0.438322
0.505905
0.507487
0.501146
0.494737
0.48782
0.480426
0.473372
0.466793
0.460259
0.453634
0.446925
0.439708
0.432841
0.426997
0.421778
0.415643
0.408275
0.399703
0.390236
0.380213
0.370265
0.360969
0.352311
0.33679
0.280584
0.0955537
0.0965378
0.27661
0.396285
0.508111
0.520178
0.514126
0.507192
0.499988
0.492105
0.484429
0.477325
0.470608
0.463832
0.457024
0.450078
0.44281
0.43659
0.431256
0.426428
0.42086
0.414429
0.406937
0.398353
0.388737
0.378313
0.367848
0.357351
0.340543
0.284057
0.0960552
0.0972815
0.313449
0.490713
0.530752
0.527292
0.51989
0.512216
0.503731
0.49515
0.487123
0.479542
0.472211
0.464858
0.457611
0.450012
0.442814
0.436941
0.431935
0.427241
0.422246
0.416833
0.41037
0.402744
0.393477
0.383597
0.373325
0.362522
0.344976
0.288193
0.0966097
0.102369
0.405777
0.531126
0.539148
0.532446
0.524299
0.515156
0.505556
0.496279
0.487517
0.478971
0.470557
0.462251
0.454175
0.445599
0.438163
0.431939
0.427722
0.423078
0.418351
0.413494
0.407766
0.400999
0.39266
0.38441
0.37582
0.366566
0.349885
0.293383
0.0973003
0.123194
0.487034
0.544957
0.543704
0.535982
0.526386
0.515697
0.505026
0.494707
0.484697
0.47481
0.464935
0.455301
0.445802
0.436186
0.427769
0.421928
0.416912
0.412006
0.407163
0.402585
0.397222
0.391256
0.384401
0.378483
0.373023
0.367652
0.354165
0.299433
0.0980133
0.155122
0.520293
0.550901
0.546436
0.537189
0.52564
0.513485
0.501561
0.489794
0.478046
0.46645
0.45475
0.44342
0.431954
0.421069
0.411775
0.405146
0.398912
0.392884
0.387518
0.382647
0.377366
0.3721
0.366988
0.363705
0.362023
0.36268
0.355689
0.305971
0.0993904
0.183562
0.541989
0.555104
0.545975
0.535109
0.521725
0.508041
0.494492
0.480903
0.467056
0.453326
0.439468
0.426071
0.412207
0.399805
0.389368
0.381056
0.373077
0.365365
0.358928
0.353205
0.34778
0.343126
0.339558
0.339104
0.341441
0.348768
0.351208
0.310918
0.10071
0.210929
0.572052
0.561198
0.543727
0.529405
0.514427
0.498831
0.483217
0.467459
0.451305
0.435083
0.418832
0.403049
0.386701
0.372389
0.360606
0.349995
0.340277
0.330608
0.322884
0.316026
0.310101
0.305739
0.303389
0.305183
0.310772
0.324304
0.336917
0.311128
0.103045
0.225364
0.613947
0.569582
0.539345
0.519251
0.503487
0.485591
0.467474
0.449142
0.430564
0.41167
0.392952
0.374683
0.356128
0.339865
0.326686
0.314039
0.302446
0.291231
0.282099
0.274431
0.268265
0.263829
0.262031
0.264983
0.272772
0.290538
0.311195
0.302935
0.10504
0.229848
0.653251
0.581972
0.533309
0.507567
0.488733
0.468139
0.447243
0.426199
0.405031
0.38363
0.362634
0.342031
0.321745
0.303989
0.290104
0.275967
0.263154
0.250949
0.241128
0.232879
0.227206
0.22323
0.221367
0.224078
0.231613
0.250225
0.275419
0.28405
0.108044
0.23033
0.67533
0.599767
0.526723
0.493161
0.469945
0.446638
0.423177
0.399562
0.37582
0.352233
0.329227
0.306678
0.284956
0.266861
0.25226
0.238474
0.22614
0.214643
0.205462
0.197552
0.192053
0.189293
0.188465
0.190069
0.195628
0.211331
0.237078
0.257629
0.110127
0.228102
0.665014
0.6236
0.518718
0.475376
0.44725
0.42175
0.395973
0.370065
0.344356
0.319298
0.295293
0.272386
0.250812
0.233256
0.218832
0.205886
0.194835
0.185885
0.178864
0.17314
0.16916
0.167515
0.16826
0.170472
0.17345
0.180373
0.200717
0.225956
0.113788
0.224443
0.629301
0.64656
0.510463
0.454527
0.421242
0.39419
0.366581
0.339134
0.312511
0.287095
0.26366
0.241928
0.222105
0.2063
0.193513
0.182379
0.173511
0.167315
0.163597
0.161175
0.160878
0.162558
0.166547
0.170777
0.174156
0.173383
0.179888
0.200771
0.117658
0.220833
0.579606
0.660934
0.502523
0.431563
0.39433
0.365027
0.336396
0.30855
0.282117
0.257667
0.236028
0.216477
0.199341
0.18637
0.176323
0.168277
0.162901
0.160331
0.159606
0.160887
0.166172
0.17378
0.182723
0.189012
0.195721
0.193368
0.185423
0.18604
0.125875
0.217907
0.533881
0.663567
0.496703
0.408491
0.366646
0.335681
0.307052
0.279879
0.254679
0.232153
0.212536
0.195537
0.181674
0.173417
0.166656
0.162593
0.161404
0.162865
0.165192
0.17062
0.182273
0.197599
0.212295
0.218832
0.22446
0.224661
0.21338
0.206661
0.13581
0.215202
0.497756
0.651448
0.493606
0.386902
0.33947
0.307735
0.280007
0.254465
0.23133
0.211169
0.193872
0.180206
0.169674
0.165598
0.163642
0.164428
0.167487
0.172336
0.177847
0.188848
0.207562
0.228807
0.243363
0.248666
0.258104
0.257578
0.220717
0.20819
0.158974
0.0700604
0.070229
0.0703993
0.0705696
0.0707399
0.0709104
0.071081
0.0712517
0.0714225
0.0715934
0.0717644
0.0719355
0.0721067
0.072278
0.0724494
0.0726209
0.0727925
0.0729643
0.0731361
0.073308
0.07348
0.0736522
0.0738244
0.0739967
0.0741692
0.0743417
0.0745144
0.0746871
0.07486
0.0750329
0.0752059
0.0753791
0.0755523
0.0757257
0.0758991
0.0760727
0.0762463
0.07642
0.0765939
0.0767678
0.0769419
0.077116
0.0772902
0.0774646
0.077639
0.0778135
0.0779881
0.0781629
0.0783377
0.0785126
0.0786876
0.078863
0.0790465
0.0793842
0.0835646
0.133324
0.237015
0.300729
0.342141
0.37227
0.373807
0.370231
0.365261
0.359869
0.351822
0.341826
0.331499
0.322208
0.313841
0.3062
0.299368
0.293186
0.287471
0.282064
0.276976
0.27217
0.2676
0.263071
0.258501
0.253884
0.24931
0.244856
0.240547
0.236339
0.232258
0.228392
0.224738
0.221246
0.217904
0.214718
0.211708
0.208874
0.2062
0.203647
0.201157
0.198761
0.196661
0.19488
0.193401
0.19219
0.191197
0.190367
0.189711
0.189245
0.188965
0.188847
0.188871
0.189008
0.189231
0.189547
0.189997
0.190618
0.191407
0.192388
0.193575
0.194942
0.196449
0.198116
0.19996
0.201996
0.204165
0.206379
0.208575
0.210747
0.213033
0.236048
0.236328
0.236575
0.236814
0.23705
0.237286
0.237521
0.237755
0.237989
0.238222
0.238455
0.238687
0.238919
0.23915
0.23938
0.23961
0.23984
0.240069
0.240297
0.240525
0.240753
0.240979
0.241206
0.241432
0.241657
0.241882
0.242106
0.24233
0.242553
0.242775
0.242997
0.243219
0.24344
0.243661
0.243881
0.2441
0.244319
0.244538
0.244756
0.244973
0.24519
0.245407
0.245623
0.245838
0.246053
0.246267
0.246481
0.246694
0.246907
0.24712
0.247332
0.247573
0.2478
0.184006
0.121043
0.195912
0.236366
0.250963
0.263508
0.280498
0.299651
0.320681
0.344093
0.370303
0.404252
0.427894
0.439688
0.446361
0.448256
0.445188
0.439578
0.432199
0.423547
0.414484
0.406007
0.398054
0.390316
0.382721
0.375217
0.367933
0.360932
0.354269
0.347953
0.341867
0.336004
0.330434
0.325194
0.320207
0.315514
0.311045
0.306825
0.30288
0.299238
0.295835
0.292558
0.289406
0.286465
0.284183
0.28242
0.281032
0.279825
0.2788
0.27804
0.277647
0.277659
0.278043
0.278766
0.279759
0.281004
0.282549
0.284683
0.287569
0.291414
0.296341
0.302503
0.310003
0.318994
0.329646
0.34205
0.356362
0.372833
0.391836
0.413919
0.439081
0.467067
0.300287
0.300438
0.30057
0.300695
0.300819
0.300942
0.301064
0.301186
0.301307
0.301427
0.301547
0.301666
0.301784
0.301902
0.302019
0.302135
0.302251
0.302366
0.30248
0.302594
0.302707
0.30282
0.302932
0.303043
0.303154
0.303264
0.303374
0.303483
0.303591
0.303699
0.303806
0.303912
0.304018
0.304124
0.304228
0.304333
0.304436
0.304539
0.304642
0.304744
0.304845
0.304946
0.305046
0.305146
0.305245
0.305344
0.305442
0.305539
0.305636
0.305734
0.305864
0.305245
0.188784
0.145532
0.218772
0.240818
0.244762
0.246469
0.250449
0.256207
0.264608
0.276823
0.29327
0.315655
0.344715
0.380031
0.419934
0.463648
0.509287
0.555655
0.592507
0.610202
0.615181
0.608776
0.592041
0.567296
0.543447
0.522267
0.502682
0.485179
0.469915
0.456984
0.445425
0.43456
0.424253
0.414624
0.405799
0.397701
0.390309
0.383587
0.377546
0.37207
0.366945
0.362162
0.357706
0.353591
0.349874
0.34652
0.343726
0.341393
0.339441
0.337758
0.336381
0.335585
0.335367
0.335582
0.336166
0.33711
0.338433
0.340266
0.342852
0.346183
0.350606
0.356584
0.364914
0.376334
0.390265
0.407186
0.427185
0.450372
0.477104
0.508047
0.542913
0.580933
0.619501
0.318532
0.318582
0.318624
0.318664