/*--------------------------------*- C++ -*----------------------------------*\
| =========                 |                                                 |
| \\      /  F ield         | OpenFOAM: The Open Source CFD Toolbox           |
|  \\    /   O peration     | Version:  2112                                  |
|   \\  /    A nd           | Website:  www.openfoam.com                      |
|    \\/     M anipulation  |                                                 |
\*---------------------------------------------------------------------------*/
FoamFile
{
    version     2.0;
    format      ascii;
    arch        "LSB;label=32;scalar=64";
    class       volScalarField;
    location    "0.00262";
    object      alphat;
}
// * * * * * * * * * * * * * * * * * * * * * * * * * * * * * * * * * * * * * //

dimensions      [1 -1 -1 0 0 0 0];

internalField   nonuniform List<scalar> 
13875
(
0.11986
0.0816023
0.0784658
0.0782724
0.0782679
0.0783678
0.0783911
0.0783686
0.0782899
0.0782598
0.0782904
0.0783315
0.0783478
0.0783372
0.0783221
0.0782567
0.078255
0.0783415
0.078399
0.0783758
0.078276
0.078258
0.078493
0.0814766
0.120885
0.103928
0.0576637
0.0570906
0.0571338
0.0566647
0.0565704
0.0565743
0.0566585
0.0570341
0.0571049
0.057145
0.0571857
0.0572121
0.0570955
0.057193
0.057155
0.0569977
0.0566457
0.0565769
0.0565746
0.0566604
0.0571387
0.0570802
0.0573421
0.104515
0.110615
0.0553388
0.0558992
0.0547335
0.0544668
0.0543218
0.0542586
0.0542401
0.0541214
0.0543157
0.0544172
0.0544329
0.0543303
0.0543135
0.0543552
0.0544069
0.0542411
0.0542168
0.0542417
0.0543078
0.0544349
0.0545916
0.0557894
0.0550764
0.111312
0.115885
0.0546468
0.0554033
0.0542945
0.0539133
0.053784
0.05372
0.0536918
0.0534845
0.0536147
0.0537238
0.0536999
0.0536654
0.0537146
0.0536725
0.0536418
0.0535432
0.0536718
0.0537019
0.053769
0.0538921
0.0541862
0.0552021
0.0543118
0.11592
0.121036
0.0546511
0.0551471
0.0537554
0.0535747
0.0533741
0.0532616
0.0532173
0.0530065
0.0531201
0.0532336
0.0532021
0.0531718
0.0532356
0.0531907
0.0531539
0.0530602
0.0532009
0.0532429
0.0533477
0.0535261
0.0536007
0.0550222
0.054339
0.121416
0.124436
0.0547566
0.0552185
0.0535883
0.053185
0.0529749
0.0528689
0.0528068
0.0526013
0.052691
0.0527982
0.0527794
0.0527436
0.0528154
0.0527716
0.0527048
0.0526205
0.0527918
0.0528507
0.0529485
0.0531452
0.0534894
0.054893
0.0544095
0.124043
0.128821
0.0565158
0.0558389
0.0534784
0.0531938
0.0528298
0.0526252
0.0525159
0.0523125
0.0523369
0.052462
0.052438
0.0524016
0.0524663
0.0524079
0.0523529
0.052297
0.052506
0.0526092
0.0527996
0.0531361
0.0533737
0.055654
0.056382
0.128949
0.135879
0.0612851
0.0579197
0.0544506
0.0533797
0.0528263
0.0525235
0.0523517
0.0521368
0.0521056
0.0522419
0.0522346
0.0522014
0.0522487
0.0521778
0.052126
0.0521061
0.0523401
0.0525074
0.0527886
0.0533156
0.0543109
0.0575624
0.0610757
0.135614
0.152141
0.0695118
0.0617808
0.0561032
0.0545441
0.0534714
0.0528615
0.0525413
0.0522772
0.0521685
0.0522301
0.0522527
0.0522599
0.052263
0.0521794
0.0521325
0.0522151
0.0525071
0.0528292
0.0533918
0.0543976
0.055811
0.0611055
0.0684616
0.15444
0.240717
0.087938
0.0668578
0.0592925
0.0559286
0.0544543
0.0536166
0.0531593
0.0528837
0.0527202
0.0526841
0.0527083
0.0527968
0.0527521
0.0526582
0.0526304
0.0527907
0.0531083
0.0535887
0.0543735
0.0558752
0.058941
0.0662893
0.087018
0.241929
0.37118
0.120273
0.0773736
0.0633459
0.0592567
0.0566564
0.0554109
0.0547381
0.0544004
0.0541597
0.0540337
0.054026
0.0541854
0.0541234
0.0540303
0.0540502
0.0542547
0.054624
0.055321
0.0564779
0.0589047
0.0628808
0.0755641
0.113471
0.366512
0.657821
0.202302
0.105424
0.0786244
0.0662698
0.0612637
0.0594064
0.0583227
0.0578473
0.0574968
0.0573149
0.0572676
0.0574229
0.0574117
0.057343
0.0574379
0.0577298
0.0582044
0.0592548
0.0609028
0.0658312
0.0766163
0.104198
0.187011
0.647858
0.586476
0.410628
0.221354
0.105102
0.0866736
0.0742061
0.0692503
0.0672023
0.0662588
0.0656855
0.0654281
0.0653752
0.0654195
0.0655387
0.0655866
0.0658382
0.0663986
0.0672981
0.0692478
0.0739421
0.0853262
0.0980875
0.185104
0.419085
0.584047
0.50306
0.393556
0.371543
0.427088
0.14724
0.105844
0.0999932
0.093563
0.0924264
0.0913696
0.0912723
0.0908969
0.0915019
0.0911778
0.0916425
0.0920944
0.0933307
0.0947335
0.10005
0.110088
0.164009
0.397357
0.368412
0.401631
0.509026
0.412421
0.357736
0.357504
0.414281
0.349491
0.227198
0.204497
0.172124
0.149277
0.145134
0.140572
0.140277
0.138649
0.139916
0.140465
0.144678
0.149786
0.171747
0.207333
0.231165
0.3412
0.401635
0.359
0.377538
0.439102
0.355449
0.328051
0.345865
0.424755
0.519029
0.652442
0.689056
0.567436
0.600715
0.597685
0.625775
0.617647
0.626307
0.617367
0.624642
0.60987
0.594469
0.55568
0.655236
0.669562
0.533273
0.433223
0.352716
0.344424
0.380602
0.279742
0.309093
0.397757
0.481545
0.552449
0.681124
0.584517
0.463435
0.458304
0.447039
0.451891
0.451137
0.447538
0.448264
0.452592
0.450376
0.45227
0.446531
0.539782
0.697727
0.589906
0.492649
0.402445
0.328812
0.312146
0.233904
0.312264
0.406837
0.445645
0.472799
0.54084
0.459419
0.378066
0.368874
0.362919
0.367513
0.365105
0.368651
0.365182
0.370411
0.368681
0.367979
0.372424
0.446775
0.544179
0.500607
0.461289
0.427084
0.310734
0.225798
0.116251
0.247282
0.375735
0.372753
0.370556
0.409937
0.399
0.358193
0.341011
0.331595
0.330275
0.327135
0.329998
0.326833
0.332079
0.333119
0.334877
0.346489
0.393221
0.419005
0.382474
0.38109
0.378809
0.270623
0.125098
0.0537955
0.172337
0.276682
0.291119
0.29081
0.325027
0.353666
0.343466
0.32318
0.306821
0.30014
0.294696
0.296265
0.294818
0.301071
0.305894
0.316035
0.33581
0.355163
0.333248
0.297674
0.295225
0.283827
0.18217
0.0538273
0.0526985
0.12228
0.18733
0.213207
0.228131
0.267647
0.309723
0.31527
0.29803
0.27978
0.269478
0.262584
0.262923
0.262938
0.270071
0.278129
0.291911
0.310831
0.312727
0.27262
0.230661
0.215581
0.190727
0.117271
0.0517033
0.0884948
0.122501
0.138094
0.166952
0.185516
0.228235
0.269686
0.280174
0.266753
0.249613
0.238809
0.230887
0.230507
0.231072
0.238897
0.24754
0.260985
0.276437
0.272447
0.232169
0.186678
0.166926
0.137576
0.117899
0.0863352
0.149539
0.133291
0.122087
0.138161
0.15748
0.198623
0.235706
0.24683
0.236533
0.220557
0.209382
0.20184
0.200803
0.201478
0.208517
0.217323
0.229538
0.241274
0.23637
0.202449
0.156937
0.137594
0.121997
0.129798
0.150283
0.177661
0.140881
0.120211
0.122203
0.138302
0.172113
0.203351
0.214623
0.205348
0.19143
0.182228
0.175124
0.174501
0.175005
0.181759
0.18905
0.199054
0.208707
0.202687
0.174001
0.139584
0.122005
0.119476
0.138026
0.174725
0.19318
0.147977
0.117049
0.114043
0.126087
0.151077
0.176566
0.186542
0.178622
0.166381
0.158165
0.152465
0.151662
0.152386
0.157955
0.16484
0.173834
0.181585
0.175378
0.151592
0.126417
0.114325
0.117353
0.145458
0.186539
0.20708
0.15635
0.11756
0.109118
0.115911
0.13375
0.153644
0.161318
0.154386
0.144576
0.138009
0.132516
0.132128
0.13246
0.137719
0.143276
0.150041
0.156181
0.151731
0.133836
0.117004
0.109176
0.117711
0.154751
0.203343
0.223798
0.169434
0.119645
0.108041
0.10977
0.121289
0.135602
0.140144
0.134157
0.12597
0.120175
0.11606
0.115312
0.116031
0.120035
0.125346
0.131162
0.136189
0.133546
0.120384
0.109474
0.107852
0.119767
0.170524
0.216797
0.241419
0.191318
0.121153
0.106477
0.104571
0.110411
0.119276
0.121396
0.116139
0.110021
0.105575
0.101668
0.101266
0.101582
0.10562
0.109772
0.114259
0.118672
0.117996
0.11008
0.104809
0.106438
0.121097
0.188216
0.235384
0.268809
0.202155
0.123477
0.104775
0.101237
0.103176
0.107736
0.107478
0.10257
0.0970634
0.0928194
0.0899479
0.0892518
0.0898744
0.0926389
0.0966078
0.100479
0.104361
0.105621
0.102279
0.100984
0.104785
0.122115
0.196001
0.264096
0.313455
0.207795
0.123832
0.102234
0.0978415
0.0968553
0.0966122
0.0943281
0.0896964
0.0854604
0.0823519
0.0795291
0.0791631
0.0794586
0.0824894
0.0854629
0.0886524
0.0924323
0.0951802
0.0961868
0.0974815
0.102111
0.12404
0.204414
0.299462
0.335542
0.214885
0.127926
0.100659
0.0940739
0.0909659
0.0885447
0.084952
0.0803206
0.0763713
0.0730591
0.071179
0.0705124
0.0711496
0.073103
0.076272
0.0794421
0.0834889
0.0874838
0.090604
0.0935266
0.100575
0.126296
0.210706
0.338695
0.344694
0.219892
0.131432
0.100134
0.0904585
0.0859391
0.0811365
0.0765164
0.0718214
0.0682074
0.0657623
0.0635688
0.0632723
0.0636291
0.0658668
0.0681613
0.0710314
0.0749994
0.0798777
0.0852447
0.0895172
0.0998176
0.129416
0.214764
0.349403
0.35546
0.221132
0.138236
0.10156
0.0872054
0.0805877
0.0753842
0.0701127
0.0655103
0.0619537
0.0590011
0.0576158
0.0570006
0.057667
0.0590932
0.0619212
0.0649728
0.0688969
0.0743013
0.0800477
0.0864054
0.100517
0.13523
0.218903
0.357079
0.363115
0.222931
0.149224
0.102334
0.0845512
0.0761322
0.0695341
0.0638382
0.0593486
0.0560277
0.053796
0.0520347
0.0517191
0.0521202
0.0540026
0.0560629
0.0590111
0.0629301
0.0687484
0.0757778
0.0838591
0.101325
0.144246
0.21918
0.365056
0.363537
0.224371
0.156342
0.107076
0.083533
0.0722692
0.0650149
0.0595334
0.0550798
0.0517966
0.0489631
0.0477932
0.0471572
0.0478532
0.0490438
0.0517126
0.0547002
0.0584586
0.0638268
0.0719072
0.0829856
0.104794
0.156362
0.219965
0.366053
0.368281
0.222597
0.156138
0.109644
0.0832355
0.0692948
0.0605174
0.0546756
0.0504842
0.0474282
0.0451902
0.0436602
0.0433111
0.0437376
0.0454383
0.0474893
0.0503206
0.0540105
0.0596136
0.068999
0.0830745
0.109365
0.15722
0.220275
0.359975
0.36682
0.219529
0.155698
0.117379
0.0843461
0.0671408
0.0571862
0.0512948
0.0473159
0.0444052
0.0416734
0.0406302
0.0399769
0.0406933
0.0418424
0.0443913
0.0471272
0.0506238
0.0561083
0.067164
0.0838611
0.116384
0.155836
0.216077
0.3603
0.363689
0.215766
0.154663
0.127661
0.0867379
0.0666321
0.0544915
0.0478576
0.0437741
0.0409725
0.0389071
0.037534
0.0371534
0.0376327
0.0391206
0.0410707
0.0436722
0.0474018
0.0534177
0.0662174
0.0860863
0.127286
0.153653
0.210711
0.358884
0.36385
0.210045
0.150217
0.128983
0.0904732
0.0663059
0.0529039
0.0456395
0.0414806
0.0387328
0.0361874
0.0353205
0.034691
0.0354185
0.0363838
0.0387753
0.041425
0.0452481
0.0520446
0.0664305
0.0904883
0.128358
0.149138
0.207051
0.355862
0.362863
0.207283
0.143066
0.128126
0.0972027
0.067471
0.0522802
0.0436819
0.0388561
0.036004
0.034122
0.0329249
0.0325515
0.0330306
0.0343598
0.0361622
0.0388918
0.043592
0.0514962
0.0671541
0.0975855
0.127638
0.140731
0.202623
0.356821
0.357645
0.204854
0.136408
0.127121
0.108916
0.0701218
0.052286
0.0429826
0.0375556
0.0345789
0.0320544
0.0312928
0.0306759
0.0313702
0.0322324
0.0346056
0.0375222
0.0428279
0.0513164
0.0697484
0.108975
0.125563
0.133315
0.200865
0.354439
0.356741
0.202913
0.130285
0.122769
0.108558
0.0752157
0.0528965
0.0424978
0.0361575
0.032509
0.0305005
0.0294138
0.0290324
0.0294664
0.0307583
0.0326486
0.0362579
0.0426534
0.0526849
0.0754952
0.108782
0.12165
0.129064
0.200477
0.351008
0.34966
0.201991
0.126374
0.116994
0.107872
0.0839198
0.0547135
0.0427912
0.0360918
0.0319713
0.0290054
0.0282066
0.0275776
0.0282778
0.0291908
0.032058
0.0360631
0.0427143
0.055005
0.0841141
0.107482
0.115286
0.124458
0.197991
0.347947
0.343296
0.202237
0.124549
0.110957
0.105056
0.0887096
0.0589876
0.0436491
0.0358372
0.0305612
0.0280368
0.0267509
0.0263287
0.0268303
0.0282882
0.0308037
0.0359029
0.0435105
0.0601029
0.0878885
0.103505
0.109582
0.121987
0.197992
0.344177
0.337828
0.198626
0.122068
0.106793
0.100603
0.0886296
0.0655681
0.0459746
0.0361266
0.0311236
0.0273754
0.0260937
0.0253098
0.0261575
0.0276097
0.0313168
0.0362238
0.0460296
0.068558
0.0875738
0.0982296
0.105298
0.12101
0.196385
0.335668
0.332733
0.198068
0.121906
0.10263
0.094731
0.0874705
0.0756201
0.0510717
0.0368731
0.0305312
0.0273828
0.0253694
0.0246724
0.0254589
0.0276369
0.0307629
0.0371209
0.0505529
0.072556
0.0861164
0.0928039
0.101563
0.120124
0.194455
0.333252
0.323549
0.194792
0.12158
0.101076
0.0911739
0.0851274
0.0760363
0.0596231
0.0395885
0.0315931
0.0273253
0.0255802
0.0243849
0.0256371
0.0275329
0.0316486
0.0395606
0.0574985
0.0725948
0.0828434
0.0893403
0.0992953
0.119288
0.191768
0.324353
0.317403
0.191971
0.120956
0.099093
0.0877329
0.0815778
0.0750048
0.0641187
0.0444288
0.0319544
0.0274942
0.0253396
0.0243807
0.0254167
0.0278572
0.0321936
0.0447511
0.0631313
0.0719921
0.0794242
0.0861961
0.0980877
0.119583
0.190175
0.316783
0.29729
0.18475
0.118952
0.0984443
0.086069
0.0783842
0.0730295
0.0644888
0.0516778
0.0354387
0.0279335
0.0257341
0.0244737
0.0257977
0.0283226
0.035486
0.0519537
0.0633049
0.0701667
0.0764671
0.0848167
0.0969821
0.117686
0.182635
0.295285
0.270947
0.175177
0.116613
0.0963947
0.084279
0.0759872
0.0696541
0.0636519
0.0563418
0.0395222
0.0296769
0.0258686
0.0247997
0.025918
0.030104
0.0393212
0.0550635
0.0625733
0.0674881
0.0742731
0.0831858
0.0954476
0.114863
0.172952
0.270265
0.118735
0.283921
0.337363
0.351812
0.35736
0.360693
0.364107
0.3688
0.375631
0.384173
0.394649
0.405297
0.412487
0.406584
0.368509
0.32902
0.310683
0.30332
0.3008
0.299886
0.29953
0.299362
0.299253
0.29917
0.299076
0.299028
0.298768
0.297377
0.281378
0.131122
0.099236
0.290988
0.34467
0.357733
0.361759
0.364717
0.368292
0.373592
0.381573
0.39233
0.406827
0.424449
0.443978
0.464535
0.475432
0.429079
0.345079
0.311073
0.300371
0.297386
0.296441
0.296103
0.295953
0.295864
0.295773
0.295702
0.295191
0.291243
0.260541
0.106905
0.0980576
0.289042
0.343168
0.356468
0.360042
0.363195
0.367223
0.373056
0.381714
0.39367
0.409727
0.429463
0.451472
0.473949
0.495348
0.504533
0.45238
0.347565
0.308846
0.298171
0.295456
0.294629
0.294344
0.294214
0.294111
0.294006
0.293296
0.287786
0.25076
0.0979884
0.0995727
0.286305
0.340018
0.354008
0.357432
0.361167
0.365848
0.372188
0.38129
0.394236
0.411831
0.432999
0.456109
0.479255
0.501194
0.521781
0.530496
0.469191
0.345898
0.305123
0.295396
0.293111
0.292464
0.292262
0.29216
0.292058
0.291286
0.285205
0.24655
0.0950172
0.099278
0.281352
0.334668
0.34955
0.352904
0.357604
0.363398
0.370687
0.379881
0.392272
0.408969
0.429523
0.454336
0.481167
0.506247
0.528077
0.548728
0.555709
0.477207
0.340863
0.301612
0.293477
0.29167
0.291209
0.29107
0.290973
0.290193
0.283905
0.244906
0.0936847
0.0981926
0.276761
0.329794
0.344277
0.347623
0.353574
0.36053
0.368882
0.378176
0.389921
0.406093
0.425904
0.449501
0.476854
0.506458
0.533524
0.55603
0.57666
0.57861
0.47002
0.332386
0.298602
0.292379
0.291042
0.290714
0.290583
0.289788
0.283356
0.24412
0.092725
0.097105
0.273045
0.32578
0.338983
0.342896
0.349913
0.358153
0.36764
0.377081
0.387738
0.403198
0.422589
0.445639
0.471818
0.501982
0.533963
0.562242
0.584964
0.605252
0.597397
0.445768
0.322113
0.29615
0.291718
0.290768
0.2905
0.289662
0.283086
0.243545
0.0918736
0.0961523
0.270811
0.322479
0.334871
0.339519
0.347604
0.356991
0.367393
0.37702
0.386762
0.400253
0.419444
0.442409
0.467917
0.496678
0.529401
0.563291
0.591989
0.614981
0.634384
0.60745
0.409098
0.312235
0.294295
0.291266
0.290577
0.289631
0.282905
0.243024
0.0910951
0.0952856
0.269822
0.320476
0.332608
0.33814
0.347132
0.357332
0.368086
0.377736
0.386768
0.398261
0.415555
0.439121
0.464271
0.492264
0.523425
0.558814
0.594159
0.622646
0.646817
0.662074
0.599521
0.372726
0.304309
0.292918
0.290895
0.289666
0.282761
0.242537
0.0903889
0.0948345
0.271013
0.321492
0.333518
0.34019
0.348961
0.35886
0.36899
0.378282
0.386652
0.396339
0.411516
0.434553
0.460046
0.487844
0.518105
0.552095
0.590274
0.62656
0.654797
0.680791
0.685102
0.552342
0.343188
0.298745
0.291893
0.289838
0.282657
0.242085
0.0897515
0.0948482
0.273724
0.324649
0.337109
0.344776
0.353505
0.362266
0.371276
0.379622
0.386886
0.393656
0.407312
0.42802
0.454642
0.482569
0.512701
0.545684
0.583216
0.624147
0.660653
0.689992
0.716558
0.698555
0.47694
0.322022
0.295204
0.290395
0.282636
0.241675
0.0891752
0.0950537
0.27743
0.329776
0.342859
0.350474
0.358811
0.366697
0.374832
0.382165
0.388098
0.393498
0.402278
0.420416
0.446751
0.475757
0.506292
0.539246
0.575693
0.61747
0.660542
0.696501
0.72869
0.752247
0.690197
0.405612
0.307783
0.29221
0.282831
0.241329
0.0886534
0.0955212
0.28256
0.335671
0.349316
0.356611
0.363781
0.369952
0.376281
0.381675
0.386504
0.391336
0.397012
0.411418
0.435699
0.466553
0.497703
0.5315
0.567861
0.608869
0.654479
0.698302
0.734917
0.770663
0.779094
0.621438
0.353664
0.298544
0.283691
0.241116
0.0881856
0.0960367
0.28818
0.340555
0.354163
0.360404
0.366545
0.37094
0.373854
0.375525
0.379055
0.383029
0.387539
0.399452
0.421184
0.453116
0.485229
0.520497
0.557955
0.598915
0.644474
0.692995
0.737567
0.777343
0.813818
0.786971
0.50806
0.322953
0.286719
0.241239
0.087781
0.0972125
0.294172
0.343082
0.352337
0.354726
0.358184
0.360741
0.360155
0.36019
0.362745
0.366367
0.371459
0.381282
0.401429
0.4326
0.466423
0.503376
0.542965
0.585308
0.630986
0.681685
0.733187
0.77951
0.824765
0.853761
0.756623
0.406399
0.298066
0.242343
0.0874801
0.0984721
0.299533
0.340211
0.34028
0.335935
0.335359
0.335796
0.334558
0.334257
0.33654
0.340409
0.346705
0.354516
0.373895
0.403506
0.439582
0.478052
0.520115
0.564809
0.611962
0.664088
0.719609
0.77445
0.824584
0.874237
0.871664
0.6386
0.338528
0.246776
0.0873982
0.100973
0.301277
0.32719
0.315651
0.304686
0.30085
0.299516
0.29848
0.298286
0.300388
0.3054
0.313075
0.321682
0.339496
0.367361
0.405248
0.445032
0.489
0.53591
0.585616
0.639826
0.698237
0.759993
0.818254
0.874558
0.91943
0.850937
0.47592
0.263883
0.0878935
0.103153
0.295256
0.302097
0.280673
0.263929
0.257324
0.255009
0.254321
0.254126
0.258608
0.266103
0.274655
0.2854
0.300218
0.327456
0.365907
0.406131
0.450781
0.499481
0.55179
0.608352
0.669929
0.737514
0.80472
0.866949
0.92928
0.936762
0.755884
0.320533
0.0902392
0.106705
0.277269
0.264476
0.237439
0.218228
0.211441
0.210195
0.209639
0.209857
0.215942
0.224799
0.234389
0.246567
0.259971
0.285528
0.322819
0.363101
0.407952
0.457623
0.512093
0.570317
0.635904
0.706826
0.781267
0.852766
0.921708
0.976303
0.916488
0.50649
0.099017
0.109092
0.250467
0.223741
0.193815
0.175325
0.170256
0.168917
0.166989
0.169143
0.176156
0.185547
0.194459
0.205793
0.219171
0.243116
0.278898
0.319041
0.36275
0.412494
0.467899
0.527694
0.597081
0.670073
0.747698
0.827844
0.904673
0.977831
0.987737
0.781988
0.128854
0.112815
0.21544
0.181916
0.153047
0.140022
0.135037
0.13313
0.132391
0.135758
0.142409
0.14921
0.157691
0.16903
0.182122
0.204887
0.238274
0.276934
0.319186
0.366431
0.420887
0.4817
0.551141
0.626725
0.70606
0.790837
0.876211
0.959018
1.02182
0.945845
0.216417
0.117669
0.184549
0.149294
0.122461
0.114084
0.11017
0.109438
0.109257
0.110742
0.114906
0.121161
0.129364
0.140084
0.152197
0.173237
0.203179
0.238946
0.278289
0.322377
0.374041
0.433848
0.500569
0.577322
0.658352
0.743787
0.83714
0.928636
1.01674
1.02982
0.335062
0.118805
0.157282
0.121602
0.101806
0.0979371
0.0981404
0.0979659
0.0946914
0.0946003
0.098343
0.103786
0.110622
0.119963
0.130708
0.147769
0.172192
0.202561
0.238363
0.280339
0.329229
0.386059
0.450872
0.524016
0.608089
0.695771
0.7884
0.885071
0.992598
1.09237
0.469357
0.142548
0.141894
0.094744
0.0894961
0.0883193
0.0916495
0.0904187
0.0879757
0.0870142
0.0895583
0.0938226
0.0992555
0.106525
0.115184
0.123911
0.142212
0.170342
0.202677
0.242063
0.287649
0.340778
0.402537
0.473073
0.553861
0.644095
0.736189
0.828127
0.959777
1.16337
0.606076
0.112071
0.102093
0.0727925
0.0842204
0.0817986
0.0822424
0.0858241
0.0843235
0.0852278
0.0846788
0.0866351
0.0911324
0.0958686
0.101721
0.107025
0.122931
0.147939
0.176043
0.210657
0.251607
0.301045
0.358268
0.425072
0.501823
0.588972
0.683767
0.780427
0.940837
1.20771
0.740272
0.131121
0.281378
0.297377
0.298768
0.299028
0.299077
0.29917
0.299254
0.299362
0.29953
0.299883
0.300787
0.303271
0.310527
0.328588
0.367471
0.405783
0.411995
0.404936
0.394353
0.383925
0.375411
0.368598
0.363919
0.360519
0.357201
0.35167
0.337227
0.283852
0.118691
0.106904
0.26054
0.291243
0.295191
0.295702
0.295773
0.295864
0.295953
0.296102
0.296437
0.29737
0.300308
0.310807
0.344244
0.427188
0.474626
0.46411
0.443633
0.424145
0.406561
0.392086
0.381349
0.373383
0.368098
0.364538
0.361597
0.357592
0.344562
0.290939
0.099236
0.0979868
0.250758
0.287786
0.293296
0.294006
0.294111
0.294214
0.294343
0.294626
0.295441
0.298114
0.308572
0.346601
0.450167
0.503609
0.494792
0.473506
0.45111
0.429157
0.409456
0.393423
0.381485
0.372839
0.367021
0.363009
0.359874
0.356314
0.343049
0.288949
0.0980091
0.0950166
0.24655
0.285205
0.291286
0.292058
0.29216
0.292262
0.292461
0.293099
0.295346
0.304861
0.344846
0.466593
0.529435
0.521121
0.500625
0.47878
0.455721
0.432676
0.411556
0.393985
0.381056
0.371961
0.365636
0.360971
0.357253
0.353842
0.339879
0.286238
0.0995744
0.0936851
0.244907
0.283906
0.290194
0.290973
0.291069
0.291207
0.291661
0.293436
0.301387
0.339814
0.474268
0.554495
0.547965
0.527399
0.505676
0.480701
0.453949
0.429177
0.408654
0.391976
0.379605
0.370424
0.363157
0.357381
0.352699
0.349349
0.334482
0.281202
0.0992516
0.0927243
0.244118
0.283356
0.289788
0.290583
0.290712
0.291035
0.292348
0.298422
0.331418
0.466714
0.577153
0.57575
0.555238
0.532854
0.505912
0.476401
0.449098
0.425535
0.405759
0.389597
0.37787
0.368591
0.360266
0.353329
0.347397
0.344054
0.329572
0.276565
0.0980951
0.091874
0.243546
0.283086
0.289662
0.290499
0.290763
0.291695
0.296025
0.321306
0.442165
0.595479
0.604164
0.584052
0.561465
0.533328
0.50144
0.471322
0.445182
0.422164
0.402814
0.387356
0.376724
0.36731
0.357855
0.349638
0.342641
0.338729
0.325553
0.272889
0.097111
0.0910957
0.243025
0.282905
0.28963
0.290574
0.29125
0.29421
0.311643
0.406029
0.604962
0.633101
0.613941
0.5911
0.562556
0.528782
0.496122
0.4674
0.441931
0.418993
0.399838
0.386325
0.376609
0.367017
0.356652
0.34729
0.339221
0.334583
0.322199
0.270534
0.0960318
0.0903888
0.242537
0.28276
0.289664
0.290885
0.292862
0.303915
0.370231
0.595445
0.660413
0.645644
0.621591
0.593297
0.558106
0.522804
0.491694
0.463742
0.438643
0.415101
0.397827
0.386289
0.377285
0.367677
0.356968
0.346781
0.337829
0.332311
0.320183
0.26956
0.0951875
0.0897521
0.242086
0.282656
0.289832
0.291858
0.29851
0.341629
0.546638
0.683024
0.679529
0.65366
0.625604
0.589483
0.551396
0.517478
0.487275
0.459523
0.434095
0.411055
0.395808
0.386106
0.377777
0.368551
0.358495
0.348697
0.33994
0.333263
0.321192
0.270731
0.0947472
0.0891747
0.241673
0.282632
0.290374
0.295073
0.321011
0.471469
0.695809
0.715285
0.68883
0.659602
0.623324
0.582532
0.545082
0.512176
0.482118
0.454244
0.427709
0.406803
0.393436
0.386791
0.379551
0.37118
0.362142
0.353357
0.344614
0.336916
0.324395
0.273478
0.0947435
0.088653
0.241328
0.282819
0.292138
0.307206
0.401629
0.685937
0.75079
0.727644
0.695406
0.659712
0.616841
0.575158
0.538799
0.505937
0.475512
0.446567
0.420347
0.402195
0.393675
0.388319
0.382418
0.375002
0.366784
0.358857
0.350508
0.342848
0.329704
0.277363
0.095049
0.0881857
0.241111
0.283654
0.298255
0.351644
0.614073
0.777053
0.769809
0.733986
0.697485
0.65396
0.608526
0.567647
0.531388
0.497671
0.466672
0.435908
0.411777
0.397458
0.391794
0.386965
0.382184
0.37675
0.370408
0.364185
0.356982
0.349635
0.335875
0.282686
0.0955358
0.0877801
0.241221
0.286581
0.321805
0.501531
0.784085
0.813112
0.776772
0.736877
0.692618
0.644376
0.599001
0.558212
0.520878
0.485656
0.453725
0.42186
0.400248
0.388395
0.383756
0.379832
0.376351
0.374817
0.371834
0.367491
0.361265
0.354917
0.341154
0.288629
0.0961621
0.0874764
0.242283
0.297511
0.402082
0.751801
0.852986
0.824669
0.779135
0.732991
0.681829
0.631353
0.585865
0.543664
0.5042
0.467298
0.433626
0.402462
0.382264
0.372609
0.367404
0.363692
0.361369
0.36157
0.362543
0.359918
0.356291
0.353739
0.344097
0.294885
0.0974519
0.0873873
0.246556
0.336685
0.630173
0.869593
0.874221
0.824658
0.774449
0.719965
0.664715
0.612763
0.565739
0.52112
0.479175
0.440742
0.404745
0.37509
0.354922
0.348002
0.341563
0.33784
0.335519
0.336076
0.337714
0.337163
0.337585
0.341838
0.341723
0.300635
0.0987962
0.0878581
0.263056
0.469924
0.848187
0.919551
0.875101
0.818624
0.760608
0.69913
0.64084
0.586733
0.537117
0.490185
0.44625
0.406497
0.368545
0.340658
0.323149
0.314037
0.307015
0.301979
0.299724
0.299889
0.301538
0.302625
0.306266
0.317168
0.329133
0.302875
0.101401
0.0901181
0.317931
0.748735
0.936406
0.93011
0.86778
0.805624
0.738689
0.671214
0.609646
0.553094
0.50079
0.451992
0.407338
0.36707
0.328412
0.301539
0.28702
0.276191
0.267984
0.260763
0.256507
0.25652
0.256804
0.258804
0.265183
0.281662
0.303696
0.297165
0.10377
0.0986279
0.50029
0.915212
0.977386
0.92296
0.853878
0.782659
0.708312
0.637334
0.571705
0.51339
0.458932
0.409289
0.364417
0.323961
0.286113
0.261423
0.248219
0.235886
0.226546
0.217808
0.211952
0.211718
0.211229
0.21218
0.218553
0.238203
0.265796
0.279036
0.10755
0.127396
0.777324
0.988537
0.979472
0.90609
0.829408
0.749437
0.671737
0.598605
0.529116
0.469266
0.413908
0.364145
0.320262
0.28033
0.244483
0.220974
0.207958
0.196191
0.187112
0.177825
0.17082
0.168257
0.169434
0.170029
0.174902
0.194058
0.224576
0.252158
0.110042
0.214198
0.945175
1.02324
0.960939
0.878044
0.792741
0.707956
0.628485
0.55283
0.483135
0.42227
0.367815
0.320532
0.278067
0.23972
0.20633
0.183917
0.171112
0.159282
0.150456
0.143782
0.137002
0.133125
0.13316
0.13476
0.139657
0.152439
0.181841
0.216419
0.113665
0.333121
1.03035
1.01891
0.930834
0.839306
0.745676
0.66016
0.579093
0.502088
0.435213
0.375283
0.323624
0.279452
0.239899
0.204454
0.174443
0.153651
0.141722
0.130774
0.122354
0.115815
0.111586
0.109514
0.109176
0.109731
0.11412
0.122394
0.149627
0.185213
0.11842
0.468028
1.09349
0.994969
0.887502
0.790682
0.697976
0.610073
0.525743
0.452369
0.38733
0.330303
0.28146
0.23931
0.203486
0.173199
0.148796
0.131859
0.121297
0.111859
0.104973
0.099037
0.0952829
0.0951489
0.0978936
0.0981544
0.0978328
0.101553
0.120997
0.157679
0.119246
0.605635
1.16499
0.962123
0.830545
0.738495
0.646281
0.555819
0.474698
0.403924
0.342045
0.288818
0.242804
0.203387
0.171063
0.14325
0.124935
0.116041
0.107533
0.100282
0.0949628
0.0901659
0.087367
0.0884334
0.0906475
0.092378
0.0886677
0.0896082
0.0943314
0.141835
0.143017
0.740978
1.20992
0.943193
0.782782
0.686035
0.591046
0.503524
0.426504
0.359543
0.301833
0.252234
0.211051
0.176555
0.148467
0.12397
0.108114
0.102707
0.0967099
0.091858
0.0875114
0.0854656
0.085416
0.0845592
0.085565
0.0819316
0.0815388
0.0840544
0.0727057
0.102227
0.112298
0.0651984
0.0653544
0.0655119
0.0656694
0.065827
0.0659847
0.0661424
0.0663003
0.0664582
0.0666162
0.0667744
0.0669326
0.0670909
0.0672493
0.0674078
0.0675663
0.067725
0.0678838
0.0680426
0.0682015
0.0683606
0.0685197
0.0686789
0.0688381
0.0689975
0.069157
0.0693165
0.0694762
0.0696359
0.0697957
0.0699556
0.0701156
0.0702756
0.0704358
0.070596
0.0707564
0.0709168
0.0710773
0.0712379
0.0713985
0.0715593
0.0717201
0.071881
0.072042
0.0722031
0.0723643
0.0725256
0.0726869
0.0728483
0.0730099
0.0731714
0.0733331
0.0734949
0.0736567
0.0738187
0.0739807
0.0741427
0.0743049
0.0744672
0.0746295
0.0747919
0.0749544
0.0751174
0.075287
0.0755264
0.076582
0.0869488
0.164918
0.38366
0.731253
1.1283
1.50384
1.86446
2.18892
2.45177
2.66009
2.85933
2.90777
2.89955
2.87118
2.81701
2.72689
2.60389
2.44125
2.26869
2.09918
1.94129
1.80095
1.68042
1.57641
1.48657
1.40967
1.34198
1.28209
1.229
1.18195
1.13966
1.10109
1.06638
1.03572
1.00951
0.991312
0.976842
0.965177
0.956857
0.95078
0.946685
0.944431
0.94432
0.946688
0.95219
0.962645
0.97649
0.99362
1.02051
1.05028
1.08144
1.11109
1.13547
1.14423
1.11533
1.0797
1.02873
0.958436
0.862165
0.21585
0.216103
0.216323
0.216536
0.216748
0.216958
0.217168
0.217378
0.217586
0.217795
0.218003
0.21821
0.218417
0.218623
0.218829
0.219034
0.219239
0.219443
0.219647
0.21985
0.220053
0.220255
0.220457
0.220658
0.220859
0.221059
0.221259
0.221458
0.221657
0.221855
0.222053
0.22225
0.222447
0.222643
0.222839
0.223034
0.223229
0.223424
0.223617
0.223811
0.224004
0.224196
0.224388
0.224579
0.22477
0.224961
0.22515
0.22534
0.225529
0.225717
0.225905
0.226093
0.22628
0.226467
0.226653
0.226838
0.227023
0.227208
0.227392
0.227576
0.227759
0.227944
0.228165
0.228796
0.224085
0.136036
0.203533
0.453419
0.674614
0.794929
0.873462
0.950661
1.00742
1.05786
1.11656
1.18064
1.25366
1.34332
1.44894
1.56299
1.68247
1.79952
1.90821
2.02754
2.13674
2.21257
2.23238
2.22452
2.1917
2.14497
2.08123
2.00882
1.93578
1.8606
1.78408
1.71134
1.64747
1.59123
1.54363
1.50412
1.47353
1.45176
1.43396
1.42523
1.42149
1.42053
1.42367
1.43126
1.44207
1.45486
1.46464
1.46837
1.46814
1.46417
1.45748
1.44769
1.43745
1.42597
1.41295
1.39709
1.37694
1.35058
1.31952
1.2838
1.24699
0.27223
0.272357
0.272467
0.272571
0.272674
0.272776
0.272878
0.272979
0.27308
0.273179
0.273279
0.273377
0.273476
0.273573
0.27367
0.273767
0.273862
0.273958
0.274053
0.274147
0.274241
0.274334
0.274426
0.274518
0.27461
0.274701
0.274791
0.274881
0.274971
0.27506
0.275148
0.275236
0.275324
0.27541
0.275497
0.275583
0.275668
0.275753
0.275837
0.275921
0.276005
0.276088
0.27617
0.276252
0.276334
0.276415
0.276495
0.276575
0.276655
0.276734
0.276813
0.276891
0.276969
0.277046
0.277123
0.277199
0.277275
0.277351
0.277426
0.277501
0.277579
0.277732
0.278574
0.239522
0.142499
0.336935
0.630888
0.770761
0.807946
0.812154
0.815301
0.826457
0.829012
0.838704
0.858076
0.87667
0.896045
0.915594
0.932617
0.955156
0.981492
1.01649
1.06101
1.1151
1.18285
1.26702
1.35541
1.44346
1.52772
1.60406
1.66847
1.72643
1.76111
1.78289
1.79947
1.80782
1.80244
1.78527
1.7569
1.72121
1.6813
1.64015
1.5967
1.5491
1.4984
1.44444
1.38626
1.32405
1.25852
1.19222
1.1283
1.07048
1.01582
0.967563
0.924502
0.887882
0.85876
0.837183
0.824195
0.823256
0.832226
0.84643
0.866778
0.891123
0.917073
0.287126
0.287164
0.287196
0.287226
0.287256
0.287285
0.287314
0.287342
0.287371
0.287399
0.287427
0.287454
0.287482
0.287509
0.287535
0.287562
0.287588
0.287614
0.28764
0.287666
0.287691
0.287716
0.287741
0.287766
0.28779
0.287814
0.287838
0.287862
0.287886
0.287909
0.287932
0.287955
0.287977
0.288
0.288022
0.288044
0.288066
0.288088
0.288109
0.28813
0.288151
0.288172
0.288193
0.288213
0.288233
0.288253
0.288273
0.288293
0.288312
0.288332
0.288351
0.28837
0.288389
0.288407
0.288426
0.288444
0.288462
0.28848
0.288498
0.288522
0.288673
0.289127
0.197491
0.179713
0.468518
0.724429
0.81601
0.826113