/*--------------------------------*- C++ -*----------------------------------*\
| =========                 |                                                 |
| \\      /  F ield         | OpenFOAM: The Open Source CFD Toolbox           |
|  \\    /   O peration     | Version:  2112                                  |
|   \\  /    A nd           | Website:  www.openfoam.com                      |
|    \\/     M anipulation  |                                                 |
\*---------------------------------------------------------------------------*/
FoamFile
{
    version     2.0;
    format      ascii;
    arch        "LSB;label=32;scalar=64";
    class       volScalarField;
    location    "0.00977";
    object      alphat;
}
// * * * * * * * * * * * * * * * * * * * * * * * * * * * * * * * * * * * * * //

dimensions      [1 -1 -1 0 0 0 0];

internalField   nonuniform List<scalar> 
13875
(
0.11986
0.0816021
0.0784499
0.0782868
0.0783248
0.0783886
0.0782943
0.0782913
0.0782979
0.078288
0.0782927
0.0783107
0.0783881
0.0784129
0.078394
0.078297
0.0782557
0.0782951
0.0783038
0.0783543
0.0783208
0.078265
0.0784871
0.0814555
0.12089
0.103938
0.0576793
0.0570798
0.0571606
0.056656
0.0566723
0.0570558
0.0571437
0.0571513
0.0571167
0.0571071
0.0571261
0.0566618
0.0566156
0.056668
0.0570971
0.0571184
0.0571523
0.0570735
0.0566792
0.056674
0.0571396
0.0570671
0.0573359
0.104584
0.110619
0.0553259
0.0558766
0.0547241
0.0545887
0.0544862
0.0543342
0.054381
0.0543667
0.0542727
0.0542167
0.0543471
0.0542517
0.0542778
0.0542412
0.0543496
0.054108
0.0542531
0.0542804
0.0544499
0.0545297
0.0546028
0.0557802
0.0550803
0.111339
0.115886
0.0546455
0.0553833
0.0543172
0.0540538
0.0539405
0.0537321
0.0536135
0.0535364
0.0534436
0.0533868
0.0534704
0.0537046
0.0537408
0.0536933
0.0534837
0.0533645
0.0534631
0.0536336
0.0539048
0.0539987
0.0542019
0.0551909
0.0543039
0.115871
0.121033
0.0546349
0.0551233
0.0537477
0.0536849
0.0535089
0.0532113
0.0531123
0.053034
0.0529541
0.0528987
0.0529773
0.053221
0.0532649
0.053216
0.052995
0.0528768
0.052955
0.053109
0.0534737
0.0536069
0.0536118
0.055016
0.0543288
0.121352
0.124409
0.0547459
0.0551902
0.0536121
0.0533135
0.0531119
0.0528187
0.0526719
0.0526025
0.0525256
0.0524642
0.0525236
0.0527757
0.0528487
0.0527668
0.0525397
0.0524478
0.0525456
0.0527323
0.0530515
0.0532378
0.0535045
0.0548797
0.0543939
0.124006
0.128746
0.056476
0.0557868
0.053464
0.0532913
0.052907
0.052429
0.0522852
0.0522152
0.0521371
0.052075
0.0521346
0.0524064
0.0524755
0.0523986
0.0521492
0.0520767
0.0521607
0.0523568
0.0528621
0.0531945
0.0533634
0.0556425
0.0563586
0.128899
0.135703
0.0611976
0.0578397
0.0544237
0.0534232
0.0528574
0.0522784
0.0520137
0.0519328
0.0518442
0.051772
0.0518047
0.0521015
0.0521852
0.0520832
0.0518218
0.0518056
0.0519223
0.052217
0.0527856
0.0533241
0.0542763
0.0575139
0.0610296
0.135531
0.151303
0.0692447
0.0615441
0.0559362
0.0544312
0.053172
0.0522338
0.051888
0.0517587
0.0516713
0.0515873
0.0516075
0.0519324
0.0520265
0.0519225
0.0516225
0.0516534
0.0517992
0.0521598
0.0530936
0.0542266
0.0556196
0.0610323
0.0684141
0.154231
0.239301
0.0874318
0.0664647
0.0590015
0.0553888
0.0537095
0.052543
0.0520358
0.0518216
0.0517354
0.0516514
0.0516439
0.0519964
0.0521084
0.0519982
0.0517108
0.0517626
0.0519462
0.0524383
0.0536065
0.0552593
0.0586524
0.0660127
0.0866897
0.241225
0.365315
0.118396
0.075963
0.062941
0.0575747
0.0547812
0.0531512
0.0526177
0.0523116
0.0522036
0.0521162
0.0520861
0.0524348
0.0525671
0.0524894
0.0522602
0.0523112
0.0525492
0.0530329
0.0546172
0.0573287
0.0616303
0.074837
0.113037
0.36566
0.658159
0.193058
0.104
0.0743993
0.0613376
0.0573057
0.0551733
0.0541811
0.0536722
0.0534874
0.0533649
0.0533207
0.053607
0.0537654
0.0537654
0.0536722
0.0537568
0.0541575
0.0551194
0.0568221
0.0618928
0.0733942
0.100189
0.182928
0.643692
0.58195
0.436143
0.17605
0.092138
0.0767694
0.0649655
0.0597123
0.0578089
0.0568778
0.0565498
0.0563755
0.056314
0.056485
0.0566524
0.0567736
0.0568682
0.0571293
0.057931
0.0598453
0.0653128
0.0763335
0.0897187
0.172098
0.433722
0.581402
0.491483
0.400564
0.346791
0.326764
0.115813
0.0803557
0.0735023
0.0675704
0.0650571
0.0642859
0.0638732
0.0636831
0.0637319
0.0638976
0.0642014
0.0647207
0.0656862
0.0683717
0.0749585
0.0830953
0.131173
0.32841
0.337512
0.401498
0.500238
0.408204
0.349463
0.329167
0.333734
0.301394
0.200331
0.127126
0.0945411
0.0865114
0.0858714
0.0852884
0.0849718
0.084997
0.0851647
0.0856208
0.0865848
0.0875625
0.0953691
0.134054
0.212964
0.302297
0.330297
0.331367
0.360366
0.421827
0.329682
0.293268
0.28211
0.301108
0.312679
0.32142
0.244374
0.191368
0.171255
0.148609
0.136463
0.132388
0.130929
0.131658
0.134348
0.143209
0.171592
0.195494
0.249616
0.324114
0.307786
0.303876
0.291626
0.298476
0.341982
0.239048
0.227158
0.225337
0.264727
0.318682
0.4003
0.530123
0.564836
0.539409
0.538069
0.55762
0.570771
0.578114
0.57427
0.56104
0.550728
0.539411
0.56817
0.531704
0.396422
0.314182
0.266894
0.230424
0.234575
0.252036
0.140463
0.152599
0.185757
0.226957
0.311721
0.432018
0.563228
0.616715
0.561697
0.51282
0.495103
0.491853
0.494521
0.493421
0.49868
0.53059
0.566977
0.606941
0.56561
0.437764
0.310302
0.229287
0.177496
0.143067
0.131216
0.0685924
0.103269
0.165625
0.250419
0.350086
0.408555
0.473776
0.533493
0.500488
0.453453
0.433415
0.430532
0.432148
0.435197
0.44165
0.46319
0.497265
0.527877
0.488126
0.427141
0.372326
0.265573
0.168482
0.104716
0.0704672
0.0268908
0.0528007
0.113853
0.230615
0.346242
0.362415
0.384952
0.426835
0.424885
0.403016
0.390719
0.384861
0.382388
0.390259
0.398799
0.406412
0.414811
0.414921
0.389546
0.377831
0.363204
0.22872
0.11215
0.0520065
0.02594
0.079761
0.0888362
0.115181
0.186852
0.275205
0.285651
0.307325
0.351745
0.369857
0.361461
0.349514
0.338678
0.333234
0.344748
0.356817
0.361893
0.357406
0.338075
0.307473
0.295806
0.282958
0.186049
0.113484
0.0891868
0.0845174
0.12543
0.154268
0.12934
0.156862
0.207539
0.224526
0.252094
0.298214
0.322426
0.320376
0.308343
0.294246
0.287723
0.300188
0.315157
0.320047
0.310578
0.285554
0.247998
0.230308
0.210645
0.153895
0.125599
0.150465
0.125774
0.171394
0.166563
0.133404
0.134573
0.164171
0.180889
0.211722
0.256047
0.280974
0.280868
0.268676
0.254078
0.247055
0.258854
0.273823
0.279028
0.268976
0.246009
0.205958
0.18354
0.165889
0.134496
0.129977
0.161842
0.172366
0.211021
0.198088
0.134833
0.123945
0.138594
0.154684
0.180304
0.219995
0.242486
0.244241
0.232088
0.217987
0.212107
0.222471
0.237006
0.242549
0.231802
0.210821
0.176159
0.155436
0.139509
0.124021
0.133003
0.203395
0.206328
0.231833
0.235664
0.137829
0.119468
0.122739
0.135059
0.156782
0.189033
0.208461
0.210089
0.200166
0.18784
0.182468
0.191973
0.205151
0.209829
0.199893
0.181616
0.153689
0.134408
0.123045
0.12145
0.137505
0.24359
0.228087
0.254692
0.263732
0.138173
0.116019
0.112084
0.121217
0.138651
0.164518
0.18006
0.18195
0.173286
0.162026
0.157526
0.165421
0.1773
0.181415
0.172877
0.157639
0.135976
0.120839
0.112613
0.117407
0.13876
0.270631
0.251069
0.282784
0.279092
0.139235
0.112822
0.105731
0.109899
0.12438
0.143758
0.155867
0.156589
0.149827
0.140609
0.136578
0.143812
0.153778
0.15685
0.150058
0.13806
0.121327
0.108619
0.106545
0.114196
0.14159
0.290371
0.276365
0.311514
0.297668
0.138898
0.108203
0.100605
0.101834
0.112635
0.126891
0.135385
0.136012
0.130196
0.12217
0.119095
0.125026
0.134024
0.137244
0.132053
0.122451
0.110135
0.100892
0.101621
0.109867
0.142018
0.306773
0.305493
0.343002
0.326095
0.14332
0.105885
0.0980018
0.095268
0.102869
0.112745
0.11922
0.118813
0.114074
0.107476
0.104346
0.109645
0.116681
0.11914
0.115768
0.108967
0.100486
0.0942148
0.0984662
0.106441
0.143862
0.320533
0.336555
0.371517
0.340543
0.143733
0.101801
0.0935784
0.0907347
0.0953514
0.101405
0.105
0.104356
0.100106
0.0943163
0.0920287
0.0963489
0.102867
0.105428
0.10306
0.0979941
0.0927331
0.088656
0.0939176
0.102957
0.145537
0.34271
0.363564
0.386881
0.345828
0.148961
0.100892
0.0912119
0.086318
0.0890384
0.0910183
0.093316
0.0919475
0.0885781
0.0839449
0.0815452
0.0857149
0.0909199
0.0929964
0.0920304
0.0889967
0.0868801
0.0848175
0.09067
0.101019
0.148579
0.34848
0.385822
0.39689
0.345692
0.152849
0.0992386
0.0864494
0.0815104
0.0835396
0.0837215
0.0841221
0.082499
0.0791567
0.0746293
0.0727902
0.0760803
0.081053
0.0832608
0.0830355
0.0812944
0.0815737
0.0795003
0.085865
0.0994064
0.150764
0.346344
0.398943
0.415161
0.340328
0.158605
0.100525
0.0845105
0.0780138
0.0790991
0.0764971
0.0760204
0.0737955
0.0709781
0.0673295
0.065364
0.0686882
0.0727371
0.0746635
0.0753755
0.0749659
0.0771441
0.0763151
0.0829445
0.0996638
0.157982
0.349065
0.412618
0.422772
0.335043
0.163486
0.10095
0.0808132
0.0741892
0.0736545
0.0708722
0.0691675
0.0669247
0.0641971
0.0605606
0.0591128
0.0617257
0.065851
0.0680575
0.0690826
0.0694661
0.0723007
0.0721778
0.0798706
0.0998658
0.165055
0.341443
0.423735
0.428688
0.333509
0.164105
0.103981
0.0806789
0.0719397
0.0698661
0.0657088
0.0636138
0.0607625
0.058378
0.0554382
0.053791
0.0564177
0.0596708
0.0615097
0.063424
0.0646346
0.0684407
0.0701496
0.0784913
0.102035
0.169169
0.343035
0.430234
0.435331
0.324654
0.16209
0.105733
0.0804484
0.0687016
0.06535
0.0610636
0.0586205
0.0558903
0.0534607
0.050416
0.0492426
0.0513189
0.0547776
0.0569599
0.0587796
0.0599211
0.064379
0.0674006
0.0785185
0.105134
0.167737
0.340501
0.432751
0.440202
0.325778
0.162136
0.110917
0.0824374
0.0673724
0.0626079
0.0567107
0.0543353
0.0512751
0.0491322
0.0467127
0.0453427
0.0474962
0.0502321
0.0520889
0.0546575
0.0561048
0.0617018
0.0658672
0.0801535
0.110077
0.166619
0.335784
0.440567
0.436171
0.324052
0.159997
0.118277
0.0839293
0.0655515
0.0590219
0.0531311
0.0504747
0.0478456
0.0456094
0.0429594
0.0419625
0.0436589
0.0466739
0.0487043
0.0507375
0.0521557
0.0581428
0.0642589
0.0813315
0.118003
0.161984
0.331475
0.438967
0.433091
0.323155
0.156531
0.122217
0.087484
0.0666645
0.0574085
0.0499794
0.0472192
0.0442367
0.0423257
0.0402274
0.0390593
0.0409213
0.0432508
0.0449132
0.0476863
0.0494979
0.0562339
0.0649865
0.0856093
0.122263
0.15788
0.332189
0.434263
0.423404
0.323829
0.149403
0.122194
0.091919
0.0666901
0.0548239
0.0471765
0.044187
0.041654
0.0396782
0.0373414
0.036524
0.0379512
0.0406614
0.0424639
0.0446716
0.0466423
0.0541074
0.0651549
0.0893246
0.122029
0.1502
0.328309
0.427816
0.411615
0.324159
0.144976
0.121916
0.100082
0.0694053
0.0550948
0.0454619
0.0420385
0.0389067
0.0371587
0.0353552
0.0342993
0.0358638
0.0379285
0.0394054
0.0425075
0.0450692
0.0538817
0.0674406
0.0971447
0.121675
0.145996
0.332565
0.418568
0.406332
0.321538
0.139494
0.119808
0.107594
0.0711738
0.0543503
0.0441359
0.0398999
0.0370689
0.0351537
0.033037
0.0323422
0.0335507
0.0360404
0.0377239
0.0403909
0.043597
0.053694
0.0696288
0.108686
0.120453
0.143115
0.329676
0.40454
0.397275
0.322987
0.137482
0.116203
0.107664
0.0763521
0.0554669
0.0440735
0.0388412
0.0349818
0.0331862
0.0315377
0.0306072
0.0319772
0.0338837
0.0354268
0.0393839
0.0436136
0.0544738
0.074565
0.10895
0.117501
0.140846
0.32854
0.397212
0.388403
0.318809
0.136982
0.111021
0.106492
0.0841133
0.0568519
0.0439421
0.037861
0.0339426
0.0317695
0.0297024
0.0290706
0.030123
0.0325208
0.0343186
0.0381058
0.0433691
0.0558278
0.0819102
0.107724
0.112289
0.139203
0.326738
0.388555
0.382137
0.316149
0.135409
0.10642
0.103927
0.0931944
0.0611569
0.0446366
0.0380886
0.0327644
0.0303436
0.0286027
0.0277303
0.0289782
0.0308533
0.032877
0.0384407
0.0444488
0.0602277
0.0940668
0.105288
0.10815
0.140427
0.322646
0.379715
0.375228
0.314681
0.136237
0.102859
0.0990869
0.0927626
0.0677492
0.0459038
0.0377997
0.0327603
0.0296875
0.0272833
0.0266106
0.0276385
0.0303662
0.0328039
0.0379945
0.0455332
0.0669249
0.0937174
0.100758
0.104
0.138882
0.319472
0.375217
0.363138
0.30785
0.138057
0.100347
0.0945781
0.0915532
0.0787621
0.0499654
0.0389685
0.0325056
0.0291184
0.0268949
0.0257598
0.0271425
0.0295015
0.0324592
0.0390034
0.0492747
0.0773789
0.0924946
0.0958772
0.10105
0.139639
0.317725
0.366531
0.353531
0.303682
0.137054
0.0988157
0.0909027
0.0889656
0.0789558
0.0560653
0.0398538
0.0328388
0.0293096
0.0263598
0.0250991
0.0266307
0.0299283
0.0329156
0.0398951
0.0557867
0.0786632
0.0892462
0.0917357
0.0992931
0.140279
0.312017
0.354794
0.327417
0.292403
0.136527
0.0974212
0.0877963
0.0846128
0.0780359
0.0653957
0.0437291
0.0332293
0.0292078
0.0266304
0.025091
0.0268283
0.0295258
0.0332077
0.0437689
0.065523
0.0781856
0.0851325
0.0883964
0.098045
0.139171
0.300086
0.328935
0.296461
0.273462
0.132514
0.0960548
0.085462
0.0806729
0.0765436
0.0677738
0.0491045
0.0355499
0.0299507
0.0264736
0.0251476
0.0267003
0.0304326
0.0353454
0.049132
0.0684744
0.0766241
0.080284
0.0854543
0.096295
0.134196
0.281156
0.299174
0.126173
0.552085
0.775386
0.860584
0.862902
0.852927
0.824947
0.793556
0.746215
0.683694
0.617126
0.543493
0.474405
0.419628
0.378993
0.34944
0.325826
0.30792
0.294401
0.279919
0.264926
0.251884
0.238675
0.224418
0.20858
0.19202
0.171293
0.145173
0.111824
0.0861577
0.120532
0.584419
0.804683
0.88294
0.879446
0.868663
0.84241
0.81448
0.771166
0.713713
0.642841
0.567695
0.495282
0.433943
0.386594
0.3501
0.324099
0.305832
0.288966
0.273463
0.259658
0.246
0.233028
0.218747
0.203294
0.186756
0.16625
0.140221
0.107936
0.0839504
0.130496
0.649567
0.840295
0.908216
0.902298
0.890744
0.86756
0.843347
0.803909
0.746496
0.676336
0.599277
0.521685
0.453201
0.396638
0.351819
0.323453
0.301835
0.283607
0.268005
0.254329
0.24154
0.22792
0.213772
0.19902
0.182283
0.162028
0.136214
0.10521
0.0825616
0.139542
0.683137
0.873122
0.933238
0.9259
0.914983
0.894943
0.873036
0.838494
0.785465
0.716603
0.636981
0.555215
0.478079
0.411036
0.363649
0.328302
0.302232
0.281226
0.263865
0.250048
0.237545
0.223781
0.209976
0.195178
0.178042
0.157986
0.132502
0.102417
0.0809723
0.144667
0.712376
0.907907
0.96241
0.954552
0.940414
0.919938
0.90144
0.873194
0.827279
0.762126
0.682177
0.595879
0.509546
0.437509
0.381916
0.339029
0.306682
0.282166
0.263244
0.248536
0.23525
0.221088
0.207245
0.192118
0.175064
0.155144
0.129593
0.100135
0.0798326
0.149048
0.745722
0.945739
0.996721
0.981538
0.960035
0.940258
0.928831
0.90585
0.867344
0.807386
0.729265
0.638718
0.548334
0.470238
0.406165
0.35436
0.314899
0.285815
0.264415
0.247599
0.233175
0.218287
0.204108
0.188881
0.171823
0.151588
0.12634
0.0978839
0.0785169
0.154386
0.77905
0.984308
1.03283
1.00115
0.975718
0.95945
0.951314
0.934485
0.902255
0.850637
0.777986
0.686934
0.595873
0.512032
0.438202
0.37592
0.32789
0.293454
0.26778
0.24846
0.232342
0.217012
0.202039
0.186445
0.169522
0.148192
0.123663
0.0962219
0.077732
0.159794
0.812889
1.02191
1.0617
1.01913
0.991004
0.976073
0.972268
0.959797
0.935144
0.89358
0.828264
0.744455
0.652425
0.562118
0.476211
0.404057
0.347491
0.305238
0.274103
0.251146
0.232122
0.216041
0.199943
0.184162
0.167273
0.145648
0.121134
0.0944764
0.0767776
0.165252
0.847141
1.0592
1.08579
1.03689
1.00494
0.990922
0.991013
0.982304
0.964433
0.932981
0.877707
0.803182
0.714044
0.620805
0.526376
0.443527
0.375963
0.323867
0.285614
0.25724
0.234273
0.215875
0.198979
0.182971
0.164584
0.143509
0.119014
0.0932098
0.076185
0.169542
0.877481
1.09041
1.10876
1.05529
1.01875
1.00313
1.00537
0.998687
0.988039
0.96703
0.922773
0.859127
0.77897
0.686085
0.586353
0.493309
0.413652
0.350046
0.302506
0.266215
0.238322
0.216621
0.198887
0.182401
0.162712
0.141468
0.117089
0.0919751
0.0755129
0.17342
0.901523
1.11754
1.13138
1.07181
1.0288
1.01222
1.01586
1.01031
1.00558
0.993286
0.960011
0.910753
0.841994
0.753417
0.6543
0.553434
0.46203
0.385737
0.326155
0.279857
0.24533
0.219943
0.200278
0.182011
0.161728
0.140011
0.115789
0.0911005
0.0751584
0.176854
0.922221
1.14237
1.15226
1.0841
1.03776
1.01821
1.02179
1.01716
1.01664
1.01183
0.991691
0.955092
0.898267
0.819744
0.725955
0.621599
0.520088
0.430052
0.355669
0.298313
0.255585
0.225357
0.202985
0.182838
0.161096
0.138947
0.115155
0.0903142
0.0747969
0.179676
0.942103
1.16552
1.16649
1.09372
1.04608
1.02207
1.02327
1.01871
1.02244
1.02316
1.01546
0.992592
0.948548
0.882987
0.79758
0.695393
0.586591
0.48357
0.39429
0.323487
0.270606
0.233979
0.207577
0.184085
0.161305
0.138843
0.114579
0.0906417
0.0748028
0.181199
0.960345
1.18085
1.17637
1.1011
1.0535
1.02401
1.02108
1.01473
1.02349
1.02899
1.03193
1.0206
0.990909
0.940206
0.866042
0.770108
0.659117
0.54644
0.442658
0.356616
0.291243
0.246033
0.213273
0.186425
0.162688
0.139442
0.114191
0.0903531
0.0750166
0.182283
0.974131
1.18836
1.18139
1.1067
1.05846
1.02419
1.01483
1.00672
1.01955
1.0316
1.04217
1.04136
1.02572
0.989525
0.928596
0.84294
0.735909
0.61804
0.502166
0.400113
0.319855
0.262808
0.221898
0.191109
0.165636
0.140668
0.114444
0.090139
0.0759818
0.182115
0.980552
1.19279
1.18145
1.10932
1.06033
1.02266
1.00415
0.998858
1.01415
1.03247
1.04788
1.05465
1.05264
1.02936
0.981898
0.90908
0.81146
0.694566
0.571121
0.454347
0.357602
0.285998
0.234902
0.198617
0.169332
0.141979
0.114956
0.0901205
0.0761991
0.181136
0.979811
1.19181
1.17775
1.10796
1.05938
1.01895
0.993536
0.993128
1.00959
1.03233
1.05099
1.06309
1.07125
1.05956
1.02549
0.96666
0.881371
0.771891
0.646867
0.519415
0.405503
0.316533
0.25312
0.208434
0.174741
0.14482
0.116185
0.090579
0.0764647
0.179704
0.971978
1.18386
1.17119
1.10204
1.05487
1.01097
0.985615
0.987454
1.0058
1.02886
1.05154
1.0673
1.08264
1.08111
1.05963
1.01529
0.943855
0.845343
0.723791
0.59177
0.46289
0.355042
0.276047
0.221424
0.181973
0.148162
0.11756
0.0912422
0.0769289
0.176727
0.956579
1.17098
1.15686
1.09396
1.04591
1.00201
0.978973
0.982973
1.00142
1.02385
1.04987
1.06854
1.08935
1.09648
1.08604
1.0558
0.999348
0.913317
0.799348
0.667714
0.529351
0.402826
0.305398
0.237872
0.190664
0.152176
0.119411
0.0918383
0.0774545
0.173556
0.937884
1.14071
1.13548
1.07972
1.03449
0.993558
0.973217
0.977649
0.996405
1.01933
1.04506
1.06799
1.09264
1.10693
1.10577
1.08713
1.04549
0.973585
0.87154
0.743363
0.601027
0.459323
0.342512
0.25871
0.201195
0.157065
0.121369
0.092252
0.0778232
0.168925
0.907978
1.10825
1.10523
1.05915
1.02009
0.984511
0.968283
0.972581
0.991142
1.01446
1.04038
1.06605
1.09443
1.11427
1.12009
1.11075
1.08234
1.02567
0.937656
0.817891
0.675729
0.523609
0.389099
0.285662
0.214837
0.163595
0.124056
0.0927627
0.0781522
0.164876
0.87464
1.06212
1.06288
1.03103
1.00216
0.974836
0.963385
0.968581
0.986741
1.01048
1.03603
1.06442
1.09631
1.1201
1.13062
1.12812
1.11066
1.06826
0.994268
0.887283
0.749372
0.596351
0.445463
0.321176
0.233375
0.173041
0.128113
0.0938033
0.0787805
0.158334
0.823793
0.995441
1.00643
0.994567
0.980781
0.963971
0.957196
0.965823
0.984621
1.0085
1.03433
1.06441
1.09915
1.12532
1.13885
1.14062
1.13191
1.10082
1.03989
0.94772
0.821099
0.67201
0.511138
0.365422
0.257547
0.185574
0.133593
0.0957054
0.0797728
0.155114
0.74628
0.895592
0.927841
0.946552
0.954596
0.951416
0.951067
0.962615
0.983391
1.00879
1.0361
1.06752
1.10207
1.13006
1.14502
1.14861
1.14567
1.12344
1.0743
0.996145
0.888052
0.747496
0.581694
0.417674
0.287129
0.200336
0.140034
0.0978825
0.0807206
0.135395
0.553909
0.705952
0.809407
0.881748
0.921274
0.934589
0.944511
0.960269
0.983186
1.01001
1.04016
1.07242
1.10646
1.13223
1.14869
1.15239
1.15375
1.13911
1.10159
1.04172
0.950345
0.819898
0.653862
0.476311
0.322958
0.218285
0.147897
0.100504
0.0815691
0.0849378
0.109859
0.143148
0.169823
0.19164
0.208285
0.223965
0.239647
0.253724
0.268579
0.281823
0.295751
0.310699
0.328149
0.349492
0.377294
0.416094
0.468568
0.535385
0.604254
0.673372
0.738411
0.786167
0.817883
0.847008
0.8569
0.853652
0.766389
0.54318
0.12369
0.0825261
0.106474
0.138678
0.165164
0.185075
0.203598
0.218641
0.233089
0.247293
0.260794
0.274148
0.28905
0.307084
0.32579
0.348481
0.38455
0.428982
0.4881
0.557761
0.630976
0.702073
0.762423
0.806312
0.834996
0.861926
0.872914
0.876177
0.796075
0.575223
0.118223
0.0811311
0.103707
0.134834
0.161103
0.181397
0.198835
0.214136
0.227874
0.241979
0.25535
0.269505
0.284863
0.301055
0.3219
0.350593
0.393606
0.447723
0.513644
0.588069
0.663982
0.734911
0.793132
0.833669
0.859459
0.883577
0.894891
0.901429
0.832358
0.639134
0.127987
0.0796602
0.101148
0.131276
0.15645
0.178434
0.194439
0.209566
0.223712
0.236768
0.250359
0.265037
0.280533
0.300003
0.325417
0.359958
0.406019
0.472201
0.546371
0.626184
0.70358
0.773469
0.827666
0.862966
0.885597
0.906603
0.917395
0.926049
0.865408
0.672241
0.136941
0.0787322
0.0991087
0.128204
0.153545
0.174645
0.191935
0.206517
0.220823
0.233845
0.247432
0.263184
0.280614
0.304161
0.334507
0.375806
0.43012
0.502972
0.587185
0.670785
0.749867
0.815357
0.861986
0.890902
0.911797
0.930519
0.944172
0.955097
0.900257
0.701186
0.141802
0.077346
0.0967608
0.125033
0.150753
0.171032
0.188785
0.203794
0.218394
0.23163
0.246034
0.26277
0.284487
0.311991
0.349347
0.398409
0.463129
0.538966
0.631865
0.71946
0.797306
0.856432
0.895105
0.918625
0.932381
0.951152
0.972435
0.988242
0.93793
0.734484
0.145969
0.0766011
0.0953325
0.122834
0.147914
0.168724
0.186358
0.201967
0.216929
0.230943
0.246725
0.265959
0.291371
0.324911
0.371482
0.429735
0.505063
0.588543
0.680484
0.768463
0.840914
0.89314
0.924015
0.941595
0.95116
0.966247
0.993842
1.02424
0.976293
0.767917
0.151473
0.0757442
0.0939284
0.12063
0.145377
0.165972
0.184072
0.200176
0.215638
0.23109
0.249189
0.272098
0.302743
0.343799
0.400274
0.469147
0.55569
0.646763
0.73565
0.819303
0.883446
0.925442
0.948892
0.961654
0.967708
0.980559
1.01157
1.05549
1.01409
0.801851
0.156553
0.07519
0.0928374
0.118808
0.143221
0.163906
0.182399
0.199353
0.216088
0.233415
0.254951
0.283062
0.320552
0.371092
0.437956
0.519813
0.61457
0.709119
0.79523
0.870388
0.924357
0.955837
0.971458
0.980044
0.982056
0.993975
1.02846
1.08073
1.05241
0.835811
0.162084
0.0745371
0.0916282
0.117117
0.141252
0.162209
0.181149
0.198935
0.217114
0.237402
0.263732
0.298909
0.34558
0.407335
0.485732
0.578986
0.678322
0.772344
0.853517
0.917402
0.9592
0.979968
0.98839
0.994851
0.994316
1.00714
1.04571
1.10328
1.08636
0.869617
0.166639
0.0742395
0.0907474
0.11584
0.139875
0.161266
0.180813
0.199963
0.22015
0.244456
0.277031
0.321299
0.380009
0.454665
0.544544
0.645725
0.746007
0.835371
0.906647
0.957406
0.986631
0.998005
1.00114
1.00535
1.00332
1.01708
1.06308
1.1253
1.11518
0.89602
0.170304
0.07392
0.0899846
0.114697
0.138853
0.160946
0.181327
0.202292
0.224776
0.254284
0.294718
0.350261
0.422837
0.511575
0.61143
0.716151
0.812621
0.893824
0.952475
0.989539
1.00626
1.00937
1.00824
1.01105
1.00987
1.02572
1.07581
1.14684
1.14088
0.917898
0.173705
0.0739442
0.0896951
0.114314
0.138805
0.162258
0.183491
0.206393
0.232564
0.268468
0.318946
0.387715
0.475287
0.577324
0.684544
0.786997
0.874791
0.944052
0.98933
1.01319
1.01901
1.0157
1.01106
1.0132
1.01422
1.0332
1.08619
1.16235
1.16467
0.937741
0.176911
0.0742227
0.0899446
0.115024
0.139476
0.163095
0.186998
0.211614
0.243895
0.28752
0.350136
0.433931
0.536081
0.647926
0.758069
0.855047
0.931183
0.984969
1.01677
1.02898
1.02602
1.018
1.00862
1.01237
1.01704
1.04024
1.09404
1.1729
1.18326
0.957072
0.178878
0.0746572
0.090702
0.114966
0.14065
0.165435
0.191362
0.21987
0.258884
0.313706
0.390752
0.490462
0.604917
0.721996
0.82966
0.917493
0.980318
1.019
1.03678
1.03863
1.02875
1.01637
1.00237
1.00762
1.01816
1.04608
1.09933
1.17903
1.19182
0.972368
0.180301
0.0750497
0.0905075
0.115451
0.142078
0.168526
0.196893
0.230869
0.278694
0.347444
0.44095
0.555781
0.678684
0.795896
0.896066
0.971289
1.02084
1.04623
1.05055
1.04474
1.03009
1.01225
0.995755
0.999384
1.01862
1.04981
1.10202
1.18014
1.19616
0.980489
0.180502
0.0754195
0.0906717
0.11638
0.144509
0.172861
0.204755
0.246005
0.304984
0.390317
0.501291
0.628038
0.75408
0.866282
0.95488
1.01665
1.05293
1.06658
1.06014
1.04837
1.03051
1.00818
0.990918
0.989424
1.0174
1.05099
1.10141
1.17571
1.19595
0.980676
0.179785
0.0756872
0.0906198
0.117037
0.147629
0.178392
0.214949
0.265353
0.338468
0.442184
0.56929
0.702549
0.826149
0.928856
1.0046
1.05305
1.07669
1.08061
1.06572
1.04903
1.02716
1.00408
0.986011
0.983536
1.00993
1.04891
1.09758
1.1677
1.18813
0.974521
0.178726
0.076318
0.0904923
0.117815
0.150446
0.185428
0.228394
0.290202
0.380431
0.502891
0.641558
0.776063
0.893759
0.984396
1.04646
1.08186
1.09411
1.089
1.06799
1.04759
1.02186
0.99929
0.981012
0.977453
1.00182
1.04227
1.09048
1.15307
1.17393
0.959578
0.175991
0.0764521
0.0905965
0.119163
0.154131
0.194111
0.245642
0.321735
0.430856
0.569385
0.714126
0.845833
0.953963
1.03172
1.07935
1.10293
1.10653
1.09306
1.0676
1.04266
1.01708
0.994056
0.975895
0.971636
0.993035
1.03189
1.07722
1.13199
1.14506
0.941593
0.173105
0.0768666
0.0916365
0.122073
0.159532
0.20587
0.268897
0.362905
0.490809
0.64088
0.785829
0.91156
1.00684
1.07084
1.10468
1.11831
1.1146
1.09464
1.06554
1.03758
1.01174
0.988318
0.97056
0.965925
0.984742
1.01787
1.05722
1.10165
1.11149
0.912025
0.168667
0.0777975
0.0934373
0.126323
0.167654
0.221386
0.298949
0.412247
0.557588
0.711749
0.853541
0.968881
1.05109
1.1018
1.12384
1.12954
1.12019
1.09597
1.06395
1.03283
1.00742
0.983499
0.965685
0.960289
0.975836
1.00035
1.02945
1.0615
1.06541
0.878857
0.164841
0.0789838
0.0954609
0.131259
0.178363
0.241957
0.336315
0.470862
0.629962
0.782859
0.916473
1.01772
1.08649
1.12416
1.13659
1.13726
1.12499
1.09901
1.06352
1.03051
1.00514
0.980561
0.961951
0.954765
0.965093
0.978859
0.993006
1.00422
0.998467
0.827699
0.15844
0.080115
0.0976818
0.136968
0.19101
0.266318
0.381336
0.535835
0.703255
0.851154
0.970066
1.05723
1.11368
1.14064
1.14511
1.14279
1.12953
1.10282
1.0664
1.03084
1.00489
0.979355
0.959453
0.949119
0.951582
0.952745
0.944702
0.926421
0.898682
0.749465
0.155269
0.0807627
0.0996805
0.143388
0.205814
0.296046
0.433287
0.604647
0.775606
0.916287
1.01866
1.09121
1.13612
1.15268
1.1513
1.14743
1.13311
1.1082
1.07126
1.03447
1.00569
0.97894
0.956868
0.941998
0.935352
0.92017
0.88242
0.8093
0.710584
0.555903
0.135842
0.527086
0.524866
0.529149
0.531346
0.533876
0.536451
0.538979
0.542013
0.545179
0.5487
0.552495
0.556486
0.560572
0.564646
0.568646
0.57257
0.576587
0.580742
0.584886
0.588979
0.592947
0.596619
0.599807
0.602854
0.605928
0.608847
0.61128
0.613277
0.61488
0.616084
0.616886
0.617277
0.617254
0.616816
0.615959
0.614682
0.612982
0.610889
0.608426
0.605426
0.602194
0.599096
0.595233
0.591306
0.586954
0.582154
0.576888
0.57106
0.564697
0.557979
0.550739
0.542963
0.534648
0.525881
0.516726
0.507146
0.497131
0.486687
0.475881
0.464749
0.453301
0.441551
0.429527
0.417291
0.404882
0.39233
0.379662
0.367148
0.354931
0.343001
0.331417
0.320217
0.309418
0.299049
0.289147
0.279679
0.270774
0.262373
0.254519
0.24729
0.240481
0.23434
0.228498
0.222883
0.218516
0.214935
0.211148
0.207237
0.203345
0.199396
0.195401
0.191158
0.186482
0.181558
0.175966
0.169951
0.163517
0.156564
0.149231
0.1418
0.134344
0.126915
0.119775
0.113149
0.106892
0.101519
0.0969549
0.0932032
0.0903108
0.0881143
0.0865503
0.0854249
0.084712
0.084298
0.0840601
0.0840096
0.0839685
0.0839375
0.0838622
0.0839637
0.0839847
0.0837814
0.0830641
0.0824003
0.0813625
4.62379
4.57394
4.56689
4.58027
4.6019
4.62857
4.6594
4.69483
4.73395
4.77649
4.82148
4.86794
4.91486
4.96124
5.00624
5.04882
5.08716
5.12162
5.15293
5.18163
5.20925
5.2347
5.25585
5.27384
5.28941
5.30366
5.31445
5.32256
5.32773
5.3299
5.32906
5.32522
5.31833
5.30834
5.29515
5.27871
5.25892
5.23566
5.2089
5.17833
5.14369
5.10433
5.06076
5.01366
4.96324
4.90962
4.85361
4.79586
4.72772
4.66115
4.59046
4.51667
4.43983
4.3593
4.27618
4.18999
4.10073
4.00841
3.91335
3.81588
3.71592
3.61357
3.50901
3.40274
3.29494
3.18563
3.0745
2.95839
2.83611
2.71163
2.5899
2.47013
2.35289
2.23866
2.12854
2.02314
1.92267
1.82712
1.73638
1.65043
1.56989
1.49638
1.43123
1.37414
1.32462
1.28067
1.24038
1.20274
1.1692
1.14199
1.11878
1.0973
1.07699
1.05732
1.03682
1.01473
0.989905
0.96128
0.928147
0.890044
0.846781
0.798236
0.745385
0.688444
0.628996
0.568939
0.509709
0.453456
0.399975
0.350447
0.305923
0.266604
0.232562
0.203916
0.180765
0.162127
0.147017
0.135428
0.127122
0.121168
0.11675
0.112554
0.108626
0.10499
0.101776
7.538
7.47074
7.46813
7.49283
7.52897
7.57345
7.62464
7.6816
7.74313
7.80779
7.87385
7.93959
8.00354
8.06449
8.12136
8.17331
8.21924
8.25949
8.29512
8.32711
8.35742
8.38044
8.39626
8.40741
8.41567
8.42121
8.42026
8.4147
8.40477
8.39026
8.37102
8.34693
8.31787
8.28374
8.24452
8.20017
8.15063
8.09584
8.03586
7.9708
7.9002
7.82397
7.74245
7.65615
7.56536
7.47027
7.37124
7.26821
7.16023
7.04763
6.93114
6.81141
6.68782
6.55196
6.42145
6.28579
6.14662
6.00407
5.85765
5.70766
5.55418
5.39754
5.2381
5.07687
4.91408
4.74989
4.58449
4.41792
4.2502
4.08102
3.90865
3.73731
3.57376
3.41548
3.2612
3.11085
2.96533
2.82668
2.69557
2.57225
2.45672
2.34895
2.24906
2.15672
2.07172
1.99349
1.9211
1.85423
1.79278
1.73701
1.68547
1.6361
1.58962
1.54525
1.50186
1.45876
1.41512
1.37027
1.32385
1.27559
1.22549
1.17321
1.1196
1.06394
1.00723
0.949087
0.889694
0.830806
0.770018
0.707172
0.644763
0.581478
0.519455
0.461124
0.407782
0.360216
0.317339
0.280539
0.250404
0.226519
0.206499
0.18881
0.173647
0.161251
0.150786
9.24054
9.17626
9.17617
9.21268
9.26289
9.32142
9.38638
9.45581
9.52776
9.60021
9.6712
9.73896
9.80219
9.86008
9.9123
9.95837
9.99778
10.0299
10.0558
10.0788
10.1
10.1098
10.1117
10.1088
10.103
10.0939
10.0773
10.0556
10.0288
9.99657
9.9587
9.91499
9.86536
9.80985
9.74851
9.6813
9.60815
9.52905
9.44406
9.35343
9.25701
9.15457
9.04684
8.93416
8.81687
8.69522
8.56938
8.43926
8.30471
8.16617
8.02403
7.87864
7.72979
7.57681
7.42026
7.2606
7.09803
6.92855
6.75192
6.57921
6.40276
6.22407
6.04344
5.8606
5.67536
5.48858
5.3008
5.11289
4.92569
4.73956
4.55497
4.37256
4.18759
4.00603
3.83454
3.67166
3.51533
3.36398
3.21808
3.07847
2.9456
2.8208
2.7044
2.5964
2.49605
2.40287
2.31619
2.23523
2.15894
2.08674
2.01823
1.95308
1.89104
1.83195
1.77521
1.71939
1.66537
1.61237
1.55986
1.50749
1.4555
1.40346
1.3518
1.30014
1.24916
1.19835
1.14723
1.09751
1.04637
0.992688
0.938945
0.880921
0.819375
0.756571
0.692621
0.627835
0.5631
0.502065
0.44668
0.398825
0.354777
0.314068
0.278191
0.248462
0.224152
10.2714
10.2056
10.2109
10.2556
10.3133
10.3786
10.4489
10.5215
10.594
10.6641
10.73
10.7904