/*--------------------------------*- C++ -*----------------------------------*\
| =========                 |                                                 |
| \\      /  F ield         | OpenFOAM: The Open Source CFD Toolbox           |
|  \\    /   O peration     | Version:  2112                                  |
|   \\  /    A nd           | Website:  www.openfoam.com                      |
|    \\/     M anipulation  |                                                 |
\*---------------------------------------------------------------------------*/
FoamFile
{
    version     2.0;
    format      ascii;
    arch        "LSB;label=32;scalar=64";
    class       volScalarField;
    location    "0.00913";
    object      k;
}
// * * * * * * * * * * * * * * * * * * * * * * * * * * * * * * * * * * * * * //

dimensions      [0 2 -2 0 0 0 0];

internalField   nonuniform List<scalar> 
13875
(
812.103
3462.67
3540.45
3539.38
3541.45
3540.23
3540.27
3539.27
3541.45
3543.22
3541.22
3540.47
3540.39
3540.07
3540.45
3541.22
3541.92
3541.12
3540.74
3540.24
3541.14
3539
3539.91
3460.36
820.643
881.794
2936.67
3013.11
3000.76
3001.01
2998.92
2996.72
2995.58
2996.34
2997.38
2996.69
2997.96
2996.52
2996.39
2996.21
2998.52
2996.24
2997.09
2996.96
2998.6
3000.43
2999.29
3011.51
2934.16
894.633
993.358
2710.88
2777.5
2755.41
2758.68
2756.09
2746.33
2742.99
2742.26
2741.8
2739.84
2743.88
2751.61
2752.27
2750.92
2744.66
2741.2
2742.72
2745.3
2755.09
2757.65
2753.16
2774.39
2707.23
998.387
1091.06
2533.68
2580.96
2561.51
2566.55
2563.6
2552.68
2549.16
2548.75
2547.5
2544.68
2547.89
2559.52
2560.12
2558.9
2548.68
2547.31
2547.56
2551.15
2562.92
2565.47
2559.39
2579.04
2530.16
1093.83
1172.11
2380.43
2413.09
2392.79
2397.81
2394.83
2383.46
2381.05
2380.61
2379.07
2376.66
2379.08
2390.54
2391.49
2389.94
2379.76
2379.17
2379.04
2382.34
2393.91
2396.77
2391.15
2410.41
2375.95
1177.16
1241.02
2237.1
2270.81
2244.74
2250.97
2246.31
2233.92
2232.32
2231.74
2230
2228.07
2229.62
2241.1
2242.38
2240.56
2230.21
2230.47
2229.92
2233.09
2245.7
2249.94
2243.71
2267.87
2247.33
1246.92
1321.01
2121.81
2158.18
2120.11
2122.88
2116.12
2101.75
2100.35
2099.56
2097.45
2096.07
2096.76
2108.39
2109.78
2107.62
2097.25
2098.53
2097.68
2101.54
2115.49
2121.67
2119.75
2154.08
2095.53
1323.05
1409.82
2000.74
2073.43
2019.34
2015.94
2003.01
1985.84
1983.48
1981.97
1979.48
1978.75
1978.39
1990.29
1992.02
1989.53
1978.84
1981.41
1980.53
1985.42
2002.16
2013.94
2017.98
2068.37
1992.66
1420.12
1691.55
2029.51
2021.83
1944.17
1924.5
1905.1
1883.71
1880.52
1878.36
1875.37
1875.21
1873.94
1886.08
1888.16
1885.53
1874.7
1878.09
1877.17
1883.3
1903.82
1922.36
1942.18
2017.9
2033.53
1716.78
2509.41
2285.61
2018.18
1901.04
1858.51
1826.43
1802.5
1797.82
1794.85
1791.56
1791.81
1790.08
1801.84
1804.24
1801.69
1792.07
1794.98
1795.08
1801.29
1824.64
1855.55
1891.5
2011.47
2266.31
2529.96
3877.44
3026.85
2153.77
1915.78
1814.7
1772.87
1745.89
1736.69
1731.88
1728.2
1728.44
1726.54
1737.34
1740.13
1738.34
1731.21
1733.34
1735.19
1744.96
1768.13
1813.17
1907.09
2129.54
2936.7
3858.99
5185.61
6452.7
2855.56
1995.3
1854.12
1756.94
1713.51
1698.2
1690.01
1685.72
1685.4
1683.6
1692.49
1695.82
1695.27
1691.01
1693.12
1698.07
1712.33
1757.71
1846.93
1973.76
2789.58
6314.98
5120.47
5056.85
7605.12
7063.18
3348.28
2045.63
1799.38
1742.3
1701.74
1684.65
1676.62
1674.1
1671.82
1678.09
1681.89
1683.39
1683.43
1690.26
1706.75
1746.53
1803.95
2088.97
3232.94
6764.29
7643.03
5009.64
4826.89
6349.1
7181.72
8750.67
5183.28
2327.07
1898.71
1783.44
1747.25
1742.71
1740.64
1738.71
1743.6
1747.32
1750.26
1753.08
1758.26
1792.48
1941.27
2484.14
5619.35
8155.21
6955.08
6327.64
4832.5
4604.02
5508.86
6043.19
6996.7
6865.62
6705.13
3407.62
2378.28
2127.74
2034.28
1995.31
1981.77
1982.32
1987.08
1998.76
2030.54
2120.28
2387.43
3634.07
6902.05
6815.43
6705.11
5964.41
5484.72
4680.95
4293.65
4797.98
5114.27
5882.58
6084.13
6571.36
5564.05
5178.14
4837.14
4179.33
4263.72
4316.48
4360.04
4346.17
4284.37
4184.23
4751.34
5440.83
5663.99
6635.09
5995.62
5706.35
5070.26
4776.67
4364.91
3727.69
4039.25
4336.48
5067.57
5593.94
6488.23
7313.9
7549.67
6675.84
6239.63
6506.85
6741.38
6873.92
6819.92
6572.8
6545.28
6710.39
7556.23
7345.55
6456.82
5429.95
4898.82
4223.3
3959
3718.93
3063.52
3407.18
3949.61
4860.41
5496.87
6086.81
7093.04
7768.21
6506.09
5475.22
5212.05
5236.21
5304.39
5269.11
5270.43
5784
6516.76
7425.8
7024.91
6211.58
5536.09
4804.36
3858.36
3344.53
3026.46
2640.6
3169.21
3855.44
5052.53
5952.29
5766.74
6081.16
6767.86
6120.25
5171.18
4687.8
4548.5
4538.03
4593.21
4784.51
5318.82
5964.6
6450.2
6058.48
5964.59
6257.01
5086.98
3838.95
3152.59
2643.55
2524.16
3405.32
4084.71
5186.54
5756
5303.3
5250.06
5721.28
5564.62
4951.3
4416.13
4089.76
3979.33
4162.85
4551.36
5033.09
5361.47
5468.23
5259.64
5492.33
5960.29
5173.47
4093.16
3426.5
2519.58
5082.97
7670.54
6219.97
4831.59
4995.67
4650.61
4575.26
4969.16
5032.49
4625.07
4086.89
3658.12
3504.55
3767.83
4250.12
4679.13
4828.98
4769.29
4601.83
4813.61
5151.4
4959.9
6674.54
8181.7
5955.74
11516
23248.7
7828.01
4240.02
4301.73
4089.61
4047.71
4396.38
4540.38
4247.42
3730.53
3263.81
3093.3
3381.72
3888.9
4276.75
4342.92
4238.7
4068.6
4216.87
4413.34
4378.32
8386.9
23306.7
12719.5
13679.1
19379.7
6888.02
3780.78
3765.35
3635.72
3608.54
3927.31
4090.56
3859.17
3373.34
2913.73
2737.27
3013.86
3509.28
3872.86
3902.17
3795.51
3621.08
3721.49
3840.69
3891.41
6954.74
19013.3
13558.8
12988.2
19510.8
5825
3435.2
3332.67
3244.25
3234.56
3516.3
3681.5
3481.69
3024
2593.64
2435.62
2694.2
3161.32
3502.98
3509.78
3399.55
3250.37
3315.81
3403.08
3543.88
5981.65
20152.1
12960.3
12645.5
19153.9
5183.88
3166.66
3004.14
2921.73
2928.49
3167.49
3319.61
3141.58
2720.99
2324.51
2181.8
2417.48
2852.65
3167.53
3167.36
3060.94
2937.64
2981.93
3074.87
3270.26
5396.72
20304.7
12750.6
12411.3
19080.6
4722.2
2922.16
2741.6
2651.39
2674.14
2870.58
2999.9
2838.9
2458.97
2096.44
1966.46
2177.81
2573.81
2861.38
2864.9
2768.85
2667.29
2692.03
2804.3
3005.37
4896.32
20079.8
12694.2
12429.3
17754.2
4244.93
2700.62
2528.49
2426.62
2456.48
2613.74
2712.2
2559.21
2220.97
1899.5
1784.41
1977.67
2337.12
2595.79
2607.02
2523.75
2440.6
2458.46
2592.3
2786.16
4466.86
18896.2
12671.4
12301.7
16861.5
3925.56
2520.31
2354.08
2243.37
2271.29
2395.06
2466.2
2321.96
2021.44
1733.09
1628.34
1802.1
2124.3
2358.12
2379.77
2312.56
2247.32
2265.97
2406.3
2592.4
4139.5
18154
12531.9
12000.5
16410.1
3694.18
2365.54
2204.84
2096.99
2111.99
2205.29
2252.13
2115.12
1849.19
1590.83
1494.49
1649.56
1934.54
2143.8
2178.79
2129.03
2080.43
2104.18
2241.76
2424.15
3827.69
16695.7
12455.7
11754.1
15319.4
3493.3
2233.41
2065.73
1969.66
1976.56
2037.5
2057.48
1925.38
1691.25
1464.16
1378.46
1521.4
1779.16
1966.36
2007.08
1972.34
1941.35
1970.36
2096.07
2287.16
3642.17
16031.6
12167.8
11379.4
14056.5
3334.13
2129.49
1943.81
1856.68
1858.09
1893.28
1893.2
1766.77
1559.75
1356.63
1278.17
1407.07
1636.02
1803.21
1853.64
1835.87
1821.86
1851.32
1962.13
2170.9
3447.66
14685.2
11864.4
11053.4
13268.6
3216.45
2052.23
1835.48
1753.23
1752.35
1768.41
1751.86
1631.33
1446.55
1262.92
1190.5
1306.36
1512.84
1664.66
1720.4
1716.94
1715.15
1742.87
1844.8
2082.03
3289.18
13567.2
11514.7
10774.6
12080.6
3086.53
1992
1742.66
1662.21
1653.17
1655.33
1622.67
1507.22
1342.88
1179.18
1114.22
1221.37
1408.21
1544.95
1604.62
1613.36
1617.87
1648.27
1747.52
2014.25
3186.33
12764.3
11165.4
10466.4
11189.2
2969.49
1949.91
1668.06
1581.42
1561.08
1555.92
1512.57
1402.96
1255.5
1106.51
1046.51
1143.22
1313.5
1438.45
1500.38
1519.97
1528.06
1563.31
1666.69
1962.2
3090.16
11746
10836.7
10178.9
10555.7
2845.66
1913.81
1618.19
1508.17
1478.92
1465.52
1415.83
1310.83
1178.07
1042.25
987.228
1075.29
1229.47
1343.87
1408.08
1434.65
1448.05
1491.96
1609.93
1927.75
2960.37
10906.2
10533.6
9894.4
9874.73
2723.06
1881.77
1583.39
1444.99
1403.9
1381.27
1327.55
1228.16
1107.4
983.921
933.917
1015.31
1158.71
1263.78
1326.62
1356.32
1376.93
1427.79
1574.17
1903.12
2843.04
10378.8
10244.3
9637.62
9399.9
2620.1
1876.51
1562.68
1392.84
1338.56
1305.86
1249.31
1156.21
1046.24
932.915
886.848
961.045
1091.91
1189.03
1251.17
1285.22
1312.15
1373.84
1550.5
1896.76
2714.41
9753.25
9956.37
9369.73
9152.92
2524.55
1868.39
1552.78
1356.37
1279.02
1237.98
1179.46
1092.74
992.257
887.044
844.29
911.884
1033.73
1123.41
1182.69
1221.39
1253.74
1336.4
1543.06
1888.31
2590.85
9354.56
9675.3
9083.08
8735.1
2407.68
1827.44
1556.7
1332.16
1228.49
1177.19
1115.22
1033.46
941.431
845.366
806.381
869.372
982.141
1064.9
1122.4
1164.83
1204.14
1310.32
1550.32
1854.07
2474.32
9110.38
9397.76
8820.54
8488.08
2299.78
1777.69
1574.7
1318.89
1189.21
1124.42
1059.43
982.267
897.638
807.862
771.565
829.111
934.711
1011.37
1066.95
1115.11
1166.48
1296.87
1562.45
1795.96
2361.69
8808.81
9104.51
8605.9
8300.58
2233.97
1726.61
1609.92
1317.59
1161.24
1081.44
1010.71
936.074
857.412
773.862
740.223
793.044
890.839
963.122
1018.79
1073.64
1141
1294.28
1611.54
1742.52
2267.35
8592.59
8839.14
8406.14
8089.57
2149.39
1659.59
1603.65
1326.61
1140.51
1049.38
968.454
894.17
820.286
742.036
711.179
760.413
853.374
921.39
978.038
1042.14
1121.54
1309.41
1628.16
1691.51
2280.27
8392.09
8624.01
8219.46
7913.84
2093.42
1590.94
1562.51
1361.78
1130.57
1025.52
934.843
857.866
787.165
713.491
684.676
730.04
817.214
882.932
943.23
1019.25
1111.36
1338.42
1588.63
1619.64
2200.36
8187.57
8433.85
8065.29
7732.62
2139.93
1530.2
1506.97
1415.22
1136.8
1006.08
910.076
827.953
757.985
687.108
660.16
702.178
784.958
849.844
916.63
1002.25
1119.92
1406.31
1533.59
1552.6
2174.7
8005.17
8263.44
7917.25
7569.84
2075.93
1468.32
1442.64
1425.86
1170.06
995.173
889.84
803.924
731.948
663.209
637.973
677.657
758.132
823.907
896.536
992.992
1162.58
1432.34
1469.83
1502.57
2217.52
7837.03
8121.91
7771.92
7391.92
2110.48
1424.51
1378.11
1380.01
1246.17
1003.22
875.701
786.901
712.319
643.557
618.554
656.478
735.923
804.762
880.772
999.481
1236.44
1389.62
1403.46
1448.69
2197.03
7666.78
7985.77
7627.84
7228.36
2163.31
1396.52
1321.22
1328.33
1276.31
1052.87
868.13
771.925
697.842
628.539
601.167
639.986
719.39
789.21
871.108
1046.35
1277.95
1337.2
1342.78
1409.29
2195.54
7494.17
7836
7412.73
7035.29
2145.5
1365.39
1271.58
1272.27
1239.2
1131.58
883.022
760.145
685.394
617.193
588.415
628.041
706.45
777.508
885.461
1131.58
1247.81
1279.21
1291.31
1389.98
2237.11
7275.46
7609.18
7133.28
6785.45
2144.99
1346.25
1228.24
1215.38
1196.84
1175.44
938.704
757.341
675.959
607.803
579.648
618.055
695.866
772.68
936.166
1187
1205.69
1220.2
1244.49
1367.06
2205.86
7011.82
7322.36
6497.33
6328.12
2129.55
1330.68
1191.98
1166.25
1151.97
1147.4
1030.18
785.539
671.905
600.057
571.856
609.541
689.131
794.609
1028.86
1165.07
1160.53
1169.77
1204.23
1343.74
2160.46
6542.53
6677.04
5837.51
8820.24
8507.68
7348.13
6141.9
5249.81
4552.54
3932.93
3306.75
2684.72
2098
1615.72
1254.58
1010.07
857.535
766.018
707.796
669.282
641.076
618.345
597.609
577.021
556.179
533.34
506.759
476.454
441.391
401.158
360.075
398.137
5987.19
9400.24
8946.11
7641.51
6297.45
5338.24
4617.4
4005.79
3409.06
2810.13
2218.74
1718.61
1333.04
1064.44
893.332
787.112
719.473
674.459
641.433
616.004
593.594
571.964
550.277
526.578
499.047
468.349
433.574
394.217
355.225
394.888
6241.63
9986.54
9341.7
7894.97
6446.5
5427.24
4687.18
4076.35
3493.43
2912.81
2328.89
1817.49
1413.3
1121.42
929.661
808.338
730.779
678.563
640.716
612.044
587.057
564.367
541.822
517.446
489.878
459.204
424.69
385.425
348.887
389.723
6560.12
10600.9
9901.82
8265.08
6677.26
5575.76
4801.29
4187.74
3622.3
3056.95
2484.7
1955.05
1519.24
1196.61
978.345
838.473
748.25
687.457
644.112
611.668
584.565
560.555
537.412
512.233
484.146
453.012
418.709
380.409
345.377
387.271
6826.02
11236.1
10555.5
8715.21
6969.86
5781.35
4963.04
4334.56
3775.44
3218.05
2650.1
2110.96
1645.35
1287.68
1039.29
876.62
770.73
699.618
649.655
612.642
583.248
557.938
534.466
508.536
479.831
448.007
413.675
376.33
342.519
385.234
7100.66
11967.5
11266.6
9217.69
7307.13
6033.2
5164.72
4510.44
3946.46
3396.05
2832.41
2284.49
1792.69
1397.24
1113.74
924.695
800.285
716.975
658.948
616.568
584.096
557.558
532.932
506.159
476.735
444.32
409.818
372.777
340.411
384.095
7412.68
12715.8
12009.5
9773.34
7699.13
6322.08
5405.36
4723.93
4146.76
3596.05
3035.76
2476.72
1961.76
1529.51
1207.06
985.982
838.619
740.109
671.857
623.019
586.843
558.498
531.877
504.238
473.889
441.492
406.675
369.607
338.726
383.3
7719.95
13504.3
12803.5
10393.8
8136.33
6657.36
5687.72
4976.34
4383.18
3830.34
3266.08
2695.07
2157.93
1691.12
1326.46
1066.38
890.817
772.461
690.774
633.344
591.783
559.936
531.264
502.053
471.257
439.084
404.305
366.885
337.346
382.806
8036.54
14285.4
13640.8
11085.3
8646.08
7052.02
6026.48
5279.43
4664.91
4106.92
3536.52
2947.57
2395.84
1895.07
1483.64
1174.7
962.624
818.175
717.973
648.434
599.12
562.429
530.96
499.639
468.455
435.692
401.008
364.193
336.175
382.614
8312.23
15084.1
14519
11852.3
9246.23
7523.38
6432.64
5641.89
4999.52
4432.39
3849.32
3254.13
2681.39
2141.88
1678.76
1317.09
1058.67
878.1
754.145
668.827
608.912
565.952
531.108
498.873
466.457
432.649
397.707
361.64
335.24
382.957
8583.5
15867.6
15438.8
12704.6
9950.99
8088.4
6915.42
6073.12
5395.97
4814.95
4207.03
3605.37
3012.29
2438.61
1923.95
1500.9
1183.56
956.557
799.995
694.29
621.941
571.242
532.584
497.161
463.813
429.525
394.655
359.271
334.616
383.828
8851.79
16671.6
16416.8
13641.7
10764.4
8758.86
7486.15
6582.26
5861.15
5239.68
4611.92
4002.06
3391.52
2788.89
2223.87
1735.87
1348.78
1063.91
865.468
731.707
640.912
580.381
533.814
495.987
461.07
425.902
391.164
356.664
334.303
385.258
9175.83
17517.3
17445
14656.9
11680.9
9543.53
8159.85
7180.9
6391.27
5705.8
5063.45
4442.83
3818.75
3190.57
2579.87
2025.77
1561.54
1207.86
954.81
783.042
668.484
591.494
536.946
495.293
458.183
422.274
387.818
354.1
333.804
386.486
9481.55
18406.3
18501.1
15742.3
12685.2
10434
8942.78
7864.36
6975.71
6231.48
5571.85
4934.33
4294.54
3641.15
2989.74
2372.47
1829.24
1395.86
1072.84
851.917
706.739
609.286
543.61
495.961
455.899
419.078
384.61
351.679
333.565
387.823
9750.62
19286.1
19552.6
16870.9
13788
11446.1
9840.49
8620.28
7622.61
6827.57
6140.7
5480.16
4819.02
4140.66
3454.49
2779.97
2161.48
1634.76
1230.95
948.983
761.606
635.484
553.921
497.876
454.458
416.871
382.088
349.907
333.62
389.263
9973.11
20082.7
20594.7
18026.9
14992.7
12586.5
10873.6
9483.22
8366.14
7512.45
6779.46
6082.43
5394.79
4692.35
3976.11
3251.52
2559.14
1938.48
1440.41
1080.45
836.452
674.434
571.436
504.197
455.371
416.194
380.742
349.092
334.331
391.376
10190.3
20808.9
21603.7
19197.7
16288.8
13867.9
12032.9
10471.2
9227.75
8293.66
7494.35
6744.51
6021.79
5290.97
4547.99
3783.97
3024.56
2309.19
1705.47
1249.67
933.858
727.309
596.093
514.15
458.988
416.293
380.096
349.049
335.303
393.893
10436.9
21417
22544.8
20374.8
17670.7
15291.1
13322.3
11599
10225.9
9184.82
8295.16
7473.14
6698.87
5928.6
5152.03
4352.19
3534.62
2732.28
2022.25
1459.72
1057.76
795.182
629.472
527.682
463.231
415.82
378.485
348.173
335.315
396.31
10612.7
21866.2
23319.3
21519
19116.9
16841.4
14750.8
12888.5
11382.1
10203.3
9191.19
8275.97
7430.93
6605.52
5781.81
4937.04
4061.32
3189.76
2386.33
1715.47
1221.97
885.705
674.163
545.829
467.715
414.977
374.996
344.074
332.573
397.544
10709.1
22252.2
23925.9
22585.5
20582
18515
16358
14374
12723.2
11371.4
10198.8
9168.65
8229.54
7326.78
6439.46
5542.53
4614.27
3686.04
2802.97
2033.87
1432.12
1006.37
735.912
572.323
475.821
415.596
372.42
341.417
330.705
397.955
10857.8
22373.1
24257.7
23497.5
22044.6
20314.4
18173.7
16081.6
14264.2
12710.8
11353.8
10181
9116
8105.44
7139.49
6184.22
5205.97
4227.02
3276.1
2409.79
1693.55
1164.7
819.146
610.021
488.765
418.432
372.058
340.018
330.02
398.888
10910.4
22401.3
24266.2
24234.2
23521.5
22247.7
20223.6
18038.3
16038.1
14260.7
12703
11351.7
10117.9
8968.34
7905.62
6871.86
5838.87
4804.22
3795.59
2837.76
2011.46
1368.29
929.707
662.324
510.374
425.754
373.669
339.909
329.76
400.945
11022.6
22030.3
23896.8
24684.3
24982.2
24325.7
22536.5
20284.9
18091.2
16072.8
14283.9
12719.4
11250.4
9935.99
8741.29
7600.93
6502.57
5408.14
4345.37
3310.48
2381.69
1618.55
1074.27
733.766
541.396
437.283
376.865
339.764
329.287
401.796
10875.8
21541.8
23351
25053.3
26518
26601.7
25140.5
22866.6
20481.6
18196.9
16123.7
14278.2
12548.6
11004.7
9628.12
8362.7
7183.78
6032.41
4914.99
3811.31
2789.47
1915.39
1253.88
825.473
581.342
451.425
380.81
339.614
328.597
403.233
10325.5
21590.3
23198.6
25622.9
28259
29141.1
28056
25819
23254.8
20672.4
18239.6
16034.7
14004.5
12189.8
10596
9186.96
7912.87
6695.55
5506.8
4336.85
3228.47
2249.17
1472.22
940.934
631.772
468.951
385.502
340.062
327.496
404.729
395.204
358.172
399.086
438.595
473.059
503.762
530.527
553.48
574.041
594.302
614.33
635.901
664.428
704.916
766.424
863.859
1027.44
1288.99
1671.69
2177.67
2791.93
3429.09
4053.02
4677.45
5401.78
6345.05
7610.47
8809.53
9107.43
6003.94
391.781
353.177
391.903
430.984
465.359
496.467
523.873
547.481
568.63
590.037
612.055
636.6
669.636
716.565
787.147
897.86
1078.63
1363.16
1766.12
2289.86
2897.78
3502.43
4097.3
4717.18
5469.97
6481.64
7892.74
9250.22
9690.55
6153.32
387.018
346.883
383.833
422.517
456.414
487.402
515.414
539.602
561.168
583.116
607.532
636.303
674.167
727.996
808.102
933.094
1132.14
1436.35
1856.37
2387.92
2983.26
3568.05
4147.55
4766.99
5543.99
6616.74
8139.82
9658.04
10289.2
6409.29
384.559
343.822
378.83
417.043
450.938
482.069
510.444
535.509
558.079
581.652
607.929
640.487
684.046
746.083
838.192
980.514
1202.6
1533.95
1984.34
2523.61
3103.07
3667.73
4235.76
4866.49
5681.23
6833.86
8497.71
10228.5
10910.9
6727.57
382.749
341.203
374.98
412.751
446.889
478.564
507.128
532.992
556.612
581.912
610.356
647.061
697.197
768.753
875.296
1038.51
1288.98
1650.84
2124.37
2672.2
3243.17
3797.06
4360.67
5011.41
5874.56
7120.22
8948.55
10883.4
11549.5
6989.12
381.68
339.175
372.013
409.743
444.294
476.738
505.607
532.145
557.357
584.011
615.276
656.755
714.691
797.615
921.203
1108.76
1391.9
1786.32
2279.09
2832.46
3397.16
3946.92
4517.75
5197.7
6109.07
7454.64
9455.93
11592.3
12277.4
7260.7
381.033
337.85
369.273
407.046
442.426
475.602
505.027
531.981
558.807
587.823
622.941
670.128
737.514
834.48
978.718
1195.14
1514.75
1941.34
2452.51
3011.87
3574.17
4128.02
4715.93
5420.16
6381.34
7831.43
10008.4
12334.8
13023.8
7575.74
380.794
336.822
366.965
404.796
441.197
474.465
504.975
532.63
561.087
593.546
634.304
689.069
768.49
883.472
1053.72
1305.03
1661.48
2122.5
2653.66
3219.28
3787.14
4346.32
4951.47
5688.17
6703.29
8256.03
10633.8
13130.1
13810.1
7878.7
381.003
336.12
364.923
402.706
438.516
472.333
504.141
533.714
564.435
601.012
649.206
715.02
810.256
949.262
1153.81
1448.56
1847.66
2343.49
2895.14
3470.38
4043.78
4609.69
5239.28
6012.99
7084.41
8753.61
11309.8
13968.2
14591.4
8196.74
381.8
335.702
363.332
400.504
435.857
470.051
502.402
534.581
568.762
610.78
668.261
749.608
866.812
1038.27
1287.38
1635.37
2086.87
2614.91
3185.09
3774.13
4351.28
4927.67
5586.4
6405.24
7545.49
9346.46
12067.1
14844.1
15389.1
8471.01
383.315
335.717
361.015
397.41
432.913
467.91
501.418
535.803
574.683
624.376
693.676
795.092
942.964
1157.28
1461.16
1869.87
2374.1
2935.68
3522.51
4123.12
4716.61
5307.46
6001.82
6874.85
8102.05
10046.3
12914.2
15765.5
16180.9
8742.09
384.755
335.233
358.752
394.233
429.673
465.21
500.556
538.258
583.184
643.554
729.731
857.402
1044.98
1315.1
1685.89
2158.23
2710.17
3303.73
3906.22
4515.45
5136.56
5756.75
6496.9
7433.74
8763.58
10855.4
13846.8
16744.7
16997.1
9023.88
385.964
334.795
356.335
391.09
426.268
462.459
499.939
542.075
595.003
669.549
779.162
942.581
1182.9
1519.6
1966.39
2504.41
3100.17
3719.75
4336.59
4956.4
5599.76
6279.77
7083.58
8096.83
9539.37
11771
14865.5
17775.7
17855.3
9354.42
387.301
334.469
354.241
388.154
423.341
460.437
500.752
548.551
612.884
705.79
845.127
1055.46
1363.69
1779.31
2304.34
2905.3
3542.31
4187.98
4820.7
5456.59
6120.19
6868.91
7767.47
8875.6
10421.7
12761.8
15943
18832.8
18751.7
9662.53
388.731
334.543
352.629
385.696
421.29
459.843
504.146
559.748
639.592
757.898
937.137
1206.31
1593.17
2100.25
2701.25
3360.47
4035.76
4706.8
5361.61
6019.51
6711.24
7518.84
8528.48
9765.23
11425.1
13858.3
17074.9
19881.7
19635.4
9933.87
390.492
335.259
351.825
384.031
420.638
461.409
510.781
577.271
678.141
830.943
1064.16
1409.19
1888.25
2489.77
3164.92
3877.01
4584.5
5281.08
5964.25
6654.61
7387.93
8255.63
9387.85
10797.4
12569.9
15063.7
18231.5
20921.2
20436.7
10166
392.806
336.539
351.945
383.536
420.945
464.667
520.568
601.815
729.861
927.823
1231.7
1671.74
2256.76
2955.34
3700.81
4456.04
5190.21
5911.85
6628.43
7368.5
8163.5
9106.44
10367.6
11967.4
13859.9
16359.6
19406.6
21934
21167.2
10385.7
395.195
337.359
351.829
383.54
421.263
468.315
532.354
633.003
794.693
1048.35
1441.84
1990.67
2686.65
3476.15
4284.83
5076.02
5840.81
6596.03
7358.3
8166.8
9047.83
10092.2
11488.7
13269.4
15292.7
17743.2
20582.8
22890.8
21777.4
10645.6
396.621
336.188
349.754
381.94
421.042
471.756
547.428
671.639
876.573
1205.51
1695.83
2356.12
3154.27
4020.52
4885.44
5719.96
6529.96
7333.81
8162.07
9060.27
10060.2
11236.3
12767.2
14708.5
16859.5
19200
21739.3
23671.5
22227.4
10822.1
396.498
333.471
346.327
378.811
421.119
480.534
573.023
730.796
990.41
1409.34
2004.59
2769.81
3653.49
4581.34
5504.65
6393.39
7264.92
8133.26
9053.1
10062.2
11220.7
12568.1
14238.6
16310.3
18548
20692.6
22820.5
24273.1
22615.4
10926.9
395.889
331.212
343.292
376.768
424.144
493.312
608.799
810.362
1142.88
1664.53
2370.84
3236.83
4195.96
5178.58
6154.42
7102.62
8055.12
9029.23
10057.5
11205.8
12548.6
14099.5
15935.9
18112.1
20358
22183.4
23740.4
24600.3
22734.6
11084.1
397.07
330.619
342.604
377.739
429.964
512.153
658.034
915.189
1339.14
1971.3
2788.01
3745.61
4768.96
5806.14
6838.13
7863.35
8917.07
10035.1
11215.9
12539.3
14084.6
15865.7
17888.6
20150.8
22297.7
23685.6
24481.8
24605.3
22761.5
11153.1
398.333
329.847
341.942
379.808
438.07
537.879
722.165
1048.53
1576.31
2323.39
3243.26
4279.75
5360.34
6457.51
7557.39
8688.33
9871.53
11164.7
12576.5
14105.6
15881.1
17910.2
20135.9
22457.5
24381.5
25168.8
24967.3
24214.1
22370.5
11291.1
400.197
329.625
342.121
383.129
449.843
572.073
803.92
1214.44
1853.73
2712.71
3729.7
4833.58
5960.65
7120.35
8306.59
9568.63
10932.3
12452.5
14140.4
15940.3
17989.2
20285.8
22716.1
25059.2
26667.8
26730.4
25364
23650.4
21804.5
11178
402.586
330.005
343.762
388.253
466.326
616.962
907.235
1414.42
2169.59
3134.16
4238.78
5408.07
6594.36
7819.64
9108.86
10518.6
12113.5
13912.9
15909.6
18066.9
20463.2
23045.6
25664.8
27982.4
29220.3
28495.8
25974.5
23473.9
21728
10618.1
7586.73
7665.84
7985.01
8444.12
9104.47
9895.27
10789.8
11778.9
12840.4
13947.9
15076.4
16212.1
17340.2
18447.3
19523.2
20562.3
21560.2
22510.3
23399.8
24224.6
24990.6
25709.5
26383.8
27014.1
27599.4
28139.5
28634.7
29086.3
29496.5
29867
30200.4
30498.6
30762.9
31020.9
31272
31482.4
31641.8
31747.1
31800
31799.4
31742.6
31625
31442.3
31217.9
30938.8
30600.8
30199.9
29729.8
29198.2
28605.4
27946.1
27218.1
26421.4
25561.8
24648
23685.6
22682.6
21647.9
20593.8
19537.7
18497.6
17468.7
16452
15452.1
14472.3
13517.2
12590.8
11696.1
10835.5
10010.2
9221.27
8469.29
7755.38
7080.13
6444.29
5848.06
5291.18
4772.84
4291.88
3846.53
3435.25
3056.29
2708.28
2390.25
2101.05
1839.9
1605.94
1398.31
1216.1
1058.31
923.62
810.632
717.438
641.983
582.005
535.045
498.965
471.553
450.968
435.945
425.202
417.894
413.085
410.05
408.368
407.708
407.596
407.718
408.411
409.163
409.643
410.982
412.252
413.183
414.116
415.473
416.25
415.242
413.649
412.545
411.711
411.044
409.915
407.792
405.22
21553.2
22340.7
23597.2
25215.3
27123.3
29273.1
31619.5
34117
36710.4
39349.8
41997.3
44625.8
47209.3
49728
52169.9
54532.1
56812.5
58997.7
61049.2
62969.1
64789.5
66529.7
68186.8
69756
71235.2
72624.1
73923.2
75134.6
76260.8
77306.2
78276.9
79182.1
80008.8
80725.2
81311.5
81764.3
82090.8
82290.1
82363.5
82311.1
82132.6
81827.8
81399.9
80826
80130.3
79299.6
78324.9
77202.2
75927.9
74516.8
72954.5
71239.2
69373
67365.6
65237.1
62995.5
60650.4
58212.9
55696.7
53116.7
50481.6
47823.7
45180.1
42596.6
40060.9
37582.2
35170.3
32827.4
30565.6
28394.2
26319.1
24345.2
22477.3
20719.7
19074.9
17541
16114
14788.5
13557.5
12412.6
11344.6
10344.4
9403.66
8516.38
7677.82
6886.64
6142.24
5445.32
4796.14
4195.75
3645.7
3146.28
2698.2
2301.28
1954.07
1654.47
1399.39
1184.81
1006.62
860.928
743.698
650.608
577.581
520.575
476.488
442.555
416.699
396.751
381.483
369.671
360.416
355.134
353.893
353.557
352.44
352.503
350.915
346.388
342.187
338.528
335.682
333.797
332.705
331.926
330.862
34821.4
36171.5
38193.6
40673.4
43466.2
46483.2
49682.6
53004.5
56393.2
59799.9
63187.9
66529.3
69801.9
72991.8
76092.8
79103.4
82019.7
84826.9
87499.8
90033.9
92460.4
94801.9
97050.6
99190.5
101221
103144
104961
106676
108291
109810
111246
112572
113761
114805
115688
116408
116966
117364
117605
117690
117620
117400
117018
116464
115744
114847
113763
112490
110973
109281
107384
105281
102973
100469
97812.4
95008.5
92064.4
88989.1
85798.4
82515.7
79149.9
75704.7
72182.7
68572.7
64934.9
61304.3
57763.4
54292.7
50897.5
47601.5
44415.8
41347
38405.5
35601.9
32940.6
30425.3
28055.8
25831.3
23749.6
21806.6
19995.9
18309.9
16741.5
15283.9
13930.8
12677.1
11515
10440.2
9446.59
8529.21
7681.74
6899.75
6178.09
5511.51
4895.3
4326.99
3804.34
3326.25
2891.18
2498.53
2149.89
1843.52
1578.69
1351.25
1159.1
999.157
868.031
760.763
673.395
604.293
548.026
506.495
478.646
457.616
440.617
428.663
415.037
399.409
386.206
375.668
366.987
360.397
355.114
350.572
346.676
50306.5
52261.8
55077
58395.6
62009.4
65796.8
69684.6
73628.7
77580.2
81504.6
85379.4
89189.3
92924.7
96581.4
100158
103655
107066
110385
113597
116687
119666
122554
125358
128058
130639
133108
135469
137722
139869
141918
143858
145650
147282
148742
150018
151107
152014
152740
153292
153673
153884
153924
153783
153451
152920
152177
151209
150001
148531
146805
144821
142580
140079
137315
134332
131171
127824
124291
120591
116757
112787
108674
104413
100015
95517.3
90939.5
86246.7
81497.9
76757.9
72115.3
67605.4
63218
58974.7
54899
51004.3
47298.1
43783.9
40462.6
37333.3
34397
31650.6
29088.5
26705.5
24494.3
22447
20555
18807.6
17196
15711.3
14342
13081.4
11919.7
10849.1
9860.77
8945.6
8097.35
7309.4
6577.26
5898.32
5267.66
4685.05
4147.61
3655.9
3207.01
2799.69
2433.87
2108.4
1822.18
1570.71
1353.88
1168.56
1019.93
906.86
815.134
736.917
673.036
614.743
561.32
518.438
484.772
458.125
437.129
420.343
406.957
396.256
68140.3
70708.1
74251.5
78322.7
82646.9
87082.2
91541.7
95981.1
100372
104702
108964
113159
117289
121358
125370
129328
133229
137068
140839
144516
148079
151541
154915
158201
161375
164434
167384
170226
172961
175592
178079
180409
182559
184514
186266
187815
189168
190334
191320
192132
192771
193231
193501
193566
193410
193012
192351
191404
190148
188575
186682
184472
181952
179126
176022
172673
169084
165256
161187
156874
152385
147664
142682
137462
132078
126537
120842
115021
109102
103108
97063.1
91048.3
85168.6
79529.2
74112.4
68931.8
64003.8
59324.5
54907.2
50752.1
46857.4
43214.5
39818.5
36660.6
33730.2
31017.1
28507.3
26188.7
24046.9
22070.9
20248.3
18566.7
17011
15573.5
14240.5
13005.7
11860.1
10795.5
9806.36
8886.19
8033.71
7244.11
6514.79
5840.16
5217.09
4644.35
4117.32
3638.07
3203.22
2804.1
2440.19
2127.48
1871.36
1655.22
1458.02
1284.17
1123.89
975.359
851.331
751.556
671.788
607.792
558.007
519.254
489.074
87707.5
90825.6
94971.3
99619.2
104474
109391
114282
119106
123853
128526
133133
137685
142196
146680
151144
155591
160018
164419
168784
173065
177232
181277
185220
189080
192839
196486
200023
203451
206764
209954
212997
215861
218528
220982
223220
225246
227071
228708
230171
231467
232597
233555
234329
234901
235245
235333
235131
234602
233715
232453
230811
228791
226407
223663
220584
217193
213508
209543
205286
200731
195886
190708
185149
179188
172929
166467
159753
152819
145726
138538
131262
123936
116607
109303
102122
95173.4
88580.4
82317
76397.9
70824.4
65585.7
60683.2
56110.8
51855
47902.4
44235.3
40837.1
37686.9
34769.5
32059.7
29543.7
27207.2
25034.2
23013.2
21133.2
19384.4
17756.3
16239.7
14832.2
13526.1
12313.8
11189.6
10150.7
9190.88
8304.26
7488.99
6735.93
6041.98
5405.34
4815.52
4267.27
3777.97
3361.83
3017.47
2700.78
2397.49
2097.82
1809.95
1550.54
1327.69
1139.16
981.558
854.594
754.488
676.251
108167
111742
116328
121385
126603
131828
136996
142084
147094
152041
156942
161821
166698
171591
176509
181451
186407
191360
196284
201106
205803
210348
214765
219092
223322
227447
231458
235356
239130
242755
246219
249488
252541
255364
257954
260322
262488
264473
266301
267988
269538
270951
272213
273301
274178
274798
275111
275066
274627
273775
272509
270830
268745
266261
263389
260151
256566
252649
248405
243821
238860
233466
227615
221308
214598
207551
200151
192391
184247
176000
167582
159039
150470
141960
133513
125142
116883
108871
101250
94089.8
87369.2
81095
75251.2
69820.5
64779.2
60099.9
55755.8
51712.9
47943.4
44421.1
41128
38046.8
35161.3
32456.8
29920.1
27541
25312.9
23230.1
21287.3
19475
17789.5
16224.5
14775.2
13434
12194.1
11053.3
10000.2
9029.06
8136.28
7312.72
6551.15
5862.91
5264.06
4769.95
4346.69
3928
3492.69
3063.21
2654.92
2286.53
1956.87
1663.54
1411.09
1204.38
1037.81
128671
132569
137404
142681
148076
153451
158756
163983
169146
174272
179389
184527
189710
194955
200264
205623
211005
216374
221685
226857
231849
236644
241275
245805
250246
254579
258793
262891
266851
270632
274210
277561
280661
283495
286068
288402
290533
292499
294354
296126
297825
299458
301015
302452
303708
304723
305437
305794
305759
305325
304495
303272
301657
299651
297271
294522
291409
287943
284122
279924
275295
270134
264421
258208
251551
244474
236995
229110
220811
212163
203171
193846
184271
174808
165352
155920
146621
137471
128494
119756
111441
103750
96610.1
89997.8
83877.8
78203.5
72925.4
68003.6
63390.6
59057.4
54971.6
51111.7
47460.9
44005.2
40735.4
37645.9
34731.5
31988.5
29410.6
26989.3
24721.7
22606.1
20636.8
18805.5
17110.3
15547
14102
12766.3
11535.8
10404.4
9366.01