/*--------------------------------*- C++ -*----------------------------------*\
| =========                 |                                                 |
| \\      /  F ield         | OpenFOAM: The Open Source CFD Toolbox           |
|  \\    /   O peration     | Version:  2112                                  |
|   \\  /    A nd           | Website:  www.openfoam.com                      |
|    \\/     M anipulation  |                                                 |
\*---------------------------------------------------------------------------*/
FoamFile
{
    version     2.0;
    format      ascii;
    arch        "LSB;label=32;scalar=64";
    class       volScalarField;
    location    "0.00077";
    object      nut;
}
// * * * * * * * * * * * * * * * * * * * * * * * * * * * * * * * * * * * * * //

dimensions      [0 2 -1 0 0 0 0];

internalField   nonuniform List<scalar> 
13875
(
0.0511783
0.0366259
0.0343732
0.0343318
0.0342822
0.0343377
0.0343287
0.0342835
0.0342778
0.0342994
0.0343089
0.0343119
0.0343234
0.034303
0.034274
0.0342691
0.0343208
0.0343347
0.0343127
0.0343086
0.0343005
0.0343527
0.0343836
0.0366272
0.0513795
0.0532738
0.0341236
0.0322318
0.0321246
0.0320492
0.0320671
0.0320538
0.0320141
0.0319927
0.0320234
0.0320222
0.0320397
0.0320617
0.0320545
0.0320305
0.0320105
0.0320517
0.032064
0.0320515
0.0320631
0.0320744
0.0321182
0.0322712
0.034131
0.0535315
0.0564781
0.0335695
0.0318184
0.0316139
0.0315404
0.0315453
0.0315315
0.0314919
0.031457
0.031488
0.0314725
0.0315075
0.0315042
0.031492
0.0314583
0.0314431
0.0315234
0.0315404
0.0315416
0.0315645
0.0315711
0.0315958
0.0318793
0.0335932
0.0564329
0.0591035
0.0332411
0.0315109
0.0312887
0.0312346
0.0312274
0.0312164
0.031179
0.0311348
0.0311691
0.0311548
0.0311938
0.0311931
0.0311669
0.0311201
0.0311224
0.0311991
0.0312146
0.0312283
0.0312584
0.0312647
0.0312636
0.0315791
0.0332773
0.0590308
0.0611778
0.0330127
0.0312752
0.0310006
0.030959
0.0309404
0.0309321
0.0308958
0.0308436
0.0308805
0.0308687
0.0309115
0.0309117
0.0308856
0.0308347
0.0308378
0.0309071
0.0309219
0.0309454
0.0309779
0.0309894
0.030991
0.0313425
0.0330461
0.0611916
0.0628952
0.0328651
0.0311283
0.0307584
0.0307261
0.0306936
0.0306837
0.030644
0.0305829
0.0306208
0.0306124
0.0306594
0.0306611
0.0306341
0.030579
0.0305823
0.030645
0.0306628
0.0306974
0.0307376
0.0307621
0.0307739
0.0312068
0.0329888
0.0630576
0.0649385
0.0331075
0.0311568
0.0306164
0.0305473
0.0304923
0.0304724
0.0304244
0.0303554
0.0303944
0.0303884
0.0304397
0.0304435
0.0304126
0.0303544
0.0303565
0.030415
0.0304386
0.0304861
0.0305407
0.0306059
0.0306909
0.031329
0.0333391
0.0651621
0.0673294
0.0340374
0.0315121
0.0306515
0.0304784
0.0303726
0.0303241
0.030258
0.0301761
0.0302133
0.0302098
0.0302644
0.030272
0.0302362
0.030173
0.030173
0.0302297
0.0302669
0.0303368
0.0304304
0.0305611
0.0307639
0.0317613
0.0344749
0.068513
0.0739932
0.0364716
0.0321746
0.0308816
0.0305144
0.0303415
0.0302571
0.0301676
0.0300697
0.0301048
0.0301088
0.0301602
0.0301711
0.0301299
0.0300591
0.0300543
0.0301071
0.0301641
0.0302685
0.0304097
0.030651
0.0311173
0.0326209
0.0373515
0.0745693
0.0837519
0.0389372
0.0330154
0.0313249
0.0307403
0.0304549
0.0303169
0.0301992
0.0301036
0.0301312
0.0301447
0.0301841
0.0301948
0.0301499
0.0300752
0.0300592
0.030104
0.0301837
0.0303258
0.0305351
0.0309194
0.0316899
0.0338347
0.0408327
0.0860526
0.0916663
0.0445081
0.0347904
0.0324767
0.0312984
0.0308239
0.0306153
0.0304568
0.030365
0.0303815
0.0303986
0.0304204
0.0304255
0.0303834
0.0303122
0.0302883
0.0303287
0.0304234
0.030611
0.030894
0.0315418
0.0330789
0.0366443
0.0482494
0.0950253
0.0947357
0.0565397
0.0429875
0.0351303
0.0329057
0.0318611
0.0314055
0.0311763
0.0310594
0.0310512
0.0310576
0.0310574
0.0310514
0.0310179
0.030961
0.0309395
0.0309845
0.0311077
0.0313711
0.0319368
0.0332136
0.03715
0.0456526
0.0644981
0.0944832
0.0864403
0.0640947
0.0635753
0.0431672
0.0372658
0.034143
0.0334197
0.0330543
0.0329351
0.0328912
0.0328817
0.032862
0.0328276
0.0328152
0.0327904
0.0327812
0.032837
0.0329968
0.0333507
0.034449
0.0384877
0.0466639
0.0725553
0.067619
0.0857736
0.0790966
0.0638728
0.0633003
0.0743288
0.0485812
0.0435373
0.041803
0.0400194
0.0393494
0.0389193
0.0386275
0.0383908
0.0384342
0.0383297
0.0383315
0.0384754
0.0388562
0.0394297
0.041062
0.0443542
0.0530933
0.06823
0.0684051
0.0664623
0.0802765
0.0748738
0.0641885
0.0619132
0.0686314
0.0605471
0.0559399
0.0596207
0.0590145
0.055359
0.0537344
0.0523381
0.0513378
0.0513736
0.0511944
0.0512854
0.0520565
0.0533393
0.0560265
0.0603717
0.0579922
0.0622379
0.0664074
0.0661755
0.0651632
0.0737622
0.0676748
0.0653843
0.064499
0.0693061
0.0669888
0.079411
0.0880993
0.0736782
0.0695079
0.0694268
0.0695891
0.0710021
0.0729821
0.0724583
0.0704804
0.0696252
0.0689487
0.0708923
0.0861724
0.0898843
0.0727054
0.0680374
0.0666424
0.0638508
0.0667549
0.0659611
0.0683004
0.0694035
0.0732893
0.0720289
0.0876565
0.0858166
0.0694178
0.0664569
0.0665753
0.0680251
0.0704589
0.0764127
0.0750663
0.0697107
0.0676502
0.066571
0.0676418
0.0861636
0.0992615
0.0844703
0.0730174
0.0685703
0.0643673
0.0656822
0.0624766
0.0727178
0.0719353
0.0705856
0.069407
0.0826007
0.0807768
0.0701052
0.065939
0.0663229
0.0691192
0.074232
0.0838916
0.079998
0.0715773
0.0680604
0.0672526
0.0712043
0.0847844
0.0905558
0.0806501
0.0711711
0.0696387
0.0674044
0.0626247
0.0560458
0.0729727
0.0723167
0.0683058
0.065671
0.0731641
0.0766657
0.072241
0.0677353
0.0669919
0.0701455
0.0780804
0.0916681
0.0863462
0.0739967
0.0690956
0.0694936
0.075253
0.0828407
0.0804389
0.0720078
0.0666498
0.0664889
0.0662825
0.057675
0.0533082
0.0713696
0.0694083
0.0659515
0.0632784
0.0674601
0.0722215
0.0720897
0.0689505
0.0678208
0.0714423
0.0825474
0.0999928
0.0910681
0.0757101
0.0704302
0.0718967
0.076494
0.0779039
0.0723926
0.0657713
0.0624543
0.0625076
0.0628217
0.0540535
0.0625832
0.0669862
0.0659243
0.0632049
0.061191
0.0639478
0.0686301
0.0703825
0.0686129
0.0680859
0.0731451
0.0883541
0.109419
0.0963645
0.0776303
0.0712126
0.072304
0.0750542
0.0733179
0.0671006
0.0619382
0.0596546
0.0599498
0.0601509
0.0622942
0.0763631
0.070395
0.0637807
0.0611142
0.0595959
0.0614853
0.0656077
0.0680513
0.0674508
0.0681199
0.0754506
0.0954883
0.120197
0.103621
0.0804644
0.0717174
0.071459
0.072554
0.0696308
0.0635867
0.0593963
0.0575488
0.0582462
0.0645104
0.0746516
0.0906589
0.0781721
0.0629655
0.0596035
0.0582097
0.0594321
0.06297
0.0655815
0.0659763
0.0683287
0.0787444
0.104304
0.132701
0.11352
0.084834
0.0724953
0.0702032
0.0698603
0.0665121
0.0609182
0.0573772
0.0559508
0.0577904
0.0714811
0.0878012
0.101691
0.0833562
0.062555
0.0585899
0.0569789
0.0575689
0.0604181
0.0631248
0.0646419
0.0691882
0.08393
0.116343
0.146982
0.124885
0.0904294
0.0737735
0.0690779
0.0672472
0.0634929
0.0586281
0.0559462
0.0551461
0.0576952
0.0768676
0.0963622
0.108998
0.0914346
0.0627239
0.0581621
0.0560235
0.0559316
0.0581047
0.0609814
0.0637865
0.070898
0.0907578
0.129818
0.162302
0.137736
0.0972973
0.0756526
0.0682324
0.0649446
0.0608129
0.056776
0.0548252
0.0547349
0.0579754
0.0849491
0.103293
0.116498
0.102222
0.0637225
0.0579695
0.0552168
0.054582
0.056237
0.0593973
0.0636516
0.0736624
0.0989473
0.144196
0.178521
0.151881
0.106213
0.0790179
0.0681727
0.0632573
0.0587378
0.0553473
0.0539998
0.0545335
0.0588503
0.0934989
0.111642
0.126593
0.11285
0.065698
0.0577386
0.0546116
0.053567
0.0550581
0.0587716
0.0648835
0.0786896
0.110114
0.160318
0.194832
0.166538
0.115428
0.0830339
0.0688001
0.0622884
0.0573207
0.054293
0.0535025
0.0544778
0.060907
0.105134
0.120367
0.136956
0.123591
0.068051
0.0579543
0.0544337
0.0531853
0.0547366
0.0591244
0.0672064
0.0848809
0.121898
0.176413
0.211657
0.182104
0.127134
0.0892695
0.0709342
0.0624281
0.0568678
0.0539364
0.0534352
0.0547492
0.0630242
0.114882
0.132708
0.149719
0.132323
0.0704399
0.0588023
0.0547929
0.0536489
0.0554958
0.0608492
0.0712369
0.0929002
0.134989
0.192832
0.228608
0.19855
0.140968
0.09793
0.0751352
0.064072
0.0575932
0.0543828
0.0538025
0.0555661
0.0647566
0.120927
0.147494
0.16384
0.136535
0.072493
0.0606205
0.0561648
0.0554186
0.0579841
0.0648669
0.0783272
0.104824
0.151763
0.210963
0.245461
0.215067
0.154833
0.107602
0.0807785
0.0671325
0.0594739
0.0557752
0.0550443
0.0573888
0.067017
0.128675
0.160461
0.174294
0.144027
0.0758442
0.0641553
0.0594269
0.0587552
0.0621509
0.0707601
0.0872965
0.117972
0.16852
0.228812
0.26302
0.232862
0.172194
0.121147
0.089844
0.072836
0.0634121
0.0589055
0.0580309
0.0607939
0.0703733
0.136601
0.174472
0.185296
0.157037
0.0816294
0.0704983
0.0656801
0.0645807
0.0686899
0.0792141
0.0988945
0.133464
0.186954
0.247514
0.281136
0.251648
0.19138
0.137307
0.101767
0.0812224
0.0697126
0.0645106
0.0638492
0.0668869
0.0764501
0.14917
0.186705
0.198319
0.17239
0.0917147
0.0807807
0.0762426
0.0744682
0.0791673
0.0915446
0.114599
0.152864
0.208394
0.268013
0.300146
0.271073
0.211283
0.155229
0.116313
0.0925365
0.0793421
0.0737012
0.0738501
0.0770325
0.0874456
0.169206
0.198589
0.209875
0.194714
0.109336
0.098288
0.093704
0.0905096
0.0946119
0.107943
0.133253
0.174192
0.230723
0.289298
0.320523
0.292615
0.234601
0.177538
0.135666
0.109213
0.0945509
0.0891134
0.0904261
0.094122
0.106006
0.193526
0.21218
0.222065
0.22771
0.136756
0.126225
0.123092
0.115105
0.117326
0.130177
0.156673
0.198966
0.255427
0.312385
0.342382
0.315855
0.260096
0.203144
0.159588
0.131596
0.11695
0.112986
0.118742
0.121845
0.134248
0.227267
0.224645
0.235887
0.270169
0.176851
0.167173
0.169146
0.154845
0.15019
0.161295
0.187407
0.229263
0.284276
0.338384
0.366537
0.341099
0.287663
0.232111
0.189206
0.161817
0.148783
0.151765
0.16394
0.162322
0.174887
0.274617
0.237306
0.247763
0.327546
0.232974
0.221146
0.232314
0.219548
0.200169
0.202351
0.225667
0.265298
0.316616
0.367397
0.393711
0.37042
0.32101
0.269234
0.228099
0.202963
0.197405
0.21545
0.226626
0.215295
0.231607
0.334271
0.250801
0.25786
0.392593
0.306491
0.292335
0.304648
0.307044
0.279644
0.259085
0.274417
0.309038
0.35571
0.401542
0.425106
0.404543
0.360692
0.314031
0.277327
0.260348
0.275861
0.302805
0.298609
0.286212
0.306703
0.405439
0.260977
0.269465
0.46593
0.397046
0.383179
0.393056
0.403325
0.389482
0.348265
0.338343
0.363214
0.403562
0.443176
0.463286
0.44556
0.407535
0.367592
0.340718
0.351696
0.387322
0.398992
0.385688
0.377899
0.398851
0.474747
0.27047
0.278467
0.538854
0.500915
0.493949
0.500756
0.508284
0.514191
0.479969
0.435249
0.43108
0.459783
0.493347
0.509818
0.495787
0.464191
0.43569
0.436739
0.485269
0.513378
0.505033
0.493888
0.490464
0.505953
0.553654
0.281021
0.286338
0.607312
0.611301
0.618916
0.627079
0.630427
0.637132
0.630102
0.581878
0.527835
0.528808
0.552637
0.565082
0.555301
0.534076
0.531789
0.585181
0.639117
0.637006
0.628563
0.622712
0.619211
0.621258
0.629634
0.28878
0.291082
0.678016
0.726452
0.752075
0.768179
0.770022
0.771972
0.768427
0.752493
0.677147
0.621792
0.624739
0.631461
0.627573
0.628776
0.684293
0.759556
0.777099
0.771852
0.768609
0.764435
0.7523
0.735495
0.690325
0.292013
0.294284
0.725204
0.830005
0.881216
0.911324
0.919171
0.918997
0.912513
0.907823
0.865181
0.76651
0.718455
0.714013
0.720958
0.773669
0.873601
0.915561
0.919206
0.919853
0.919108
0.910145
0.88381
0.842505
0.74485
0.296453
0.296556
0.766035
0.91823
0.998969
1.04928
1.06907
1.07255
1.06381
1.05789
1.04659
0.969681
0.857301
0.825141
0.859822
0.978822
1.05447
1.0644
1.06865
1.07484
1.07076
1.05032
1.00504
0.934311
0.789403
0.298624
0.299704
0.827309
1.00957
1.113
1.17968
1.21567
1.22755
1.22163
1.21297
1.20902
1.18738
1.06142
0.995216
1.06776
1.19654
1.21518
1.21752
1.22504
1.23003
1.21753
1.18158
1.11844
1.02174
0.836505
0.300286
0.301392
0.88628
1.09954
1.22326
1.30473
1.35531
1.38045
1.38371
1.37869
1.37777
1.37777
1.3338
1.25891
1.3388
1.38643
1.38297
1.3826
1.38655
1.38377
1.35958
1.3107
1.23359
1.1149
0.900428
0.302473
0.301717
0.939723
1.18301
1.3268
1.42466
1.48918
1.53118
1.55066
1.55902
1.56914
1.5954
1.66694
1.6701
1.67295
1.60384
1.57373
1.56319
1.55427
1.53643
1.49666
1.43377
1.34084
1.20184
0.958936
0.303173
0.302599
0.989377
1.26126
1.42539
1.53824
1.61851
1.68118
1.721
1.7471
1.77714
1.8484
2.01617
2.15352
2.02114
1.85469
1.78161
1.75063
1.72448
1.68568
1.62585
1.54707
1.4378
1.27439
0.994078
0.302704
0.301392
1.0136
1.3174
1.50689
1.63701
1.73473
1.81567
1.87495
1.92013
1.97166
2.07377
2.28383
2.50402
2.29165
2.0796
1.97567
1.92337
1.87774
1.81932
1.7418
1.64548
1.51793
1.3283
1.01678
0.302136
0.296247
0.998879
1.34238
1.55842
1.70954
1.82182
1.91594
1.99075
2.0506
2.11864
2.23857
2.45262
2.66006
2.46181
2.24516
2.12266
2.05371
1.99391
1.92058
1.82601
1.71583
1.56658
1.35094
1.00082
0.297524
0.137701
0.308984
0.33711
0.339097
0.339002
0.33871
0.3385
0.33837
0.338286
0.338225
0.338174
0.338127
0.338082
0.338037
0.337992
0.337947
0.337903
0.337859
0.337816
0.337773
0.33773
0.337687
0.337645
0.337603
0.337561
0.337519
0.337463
0.33698
0.325002
0.156012
0.121505
0.3076
0.33454
0.335926
0.335794
0.335471
0.335246
0.335109
0.335026
0.334969
0.334925
0.334886
0.33485
0.334815
0.334781
0.334748
0.334716
0.334685
0.334654
0.334624
0.334596
0.334567
0.33454
0.334513
0.334486
0.33446
0.33441
0.333642
0.316785
0.147513
0.126703
0.311192
0.333571
0.334571
0.334441
0.334108
0.333895
0.333778
0.333718
0.333687
0.333669
0.333656
0.333644
0.333633
0.333623
0.333613
0.333604
0.333595
0.333586
0.333578
0.33357
0.333562
0.333555
0.333547
0.33354
0.333532
0.333498
0.332668
0.314865
0.145171
0.130366
0.310783
0.333221
0.33428
0.33415
0.333797
0.333587
0.333476
0.333426
0.333405
0.333396
0.333393
0.33339
0.333388
0.333387
0.333385
0.333383
0.333382
0.33338
0.333379
0.333378
0.333376
0.333375
0.333373
0.333372
0.33337
0.333341
0.332483
0.314333
0.14375
0.130264
0.309714
0.333109
0.334252
0.334121
0.333748
0.333539
0.333429
0.333381
0.333363
0.333357
0.333355
0.333354
0.333354
0.333354
0.333354
0.333353
0.333353
0.333353
0.333353
0.333353
0.333352
0.333352
0.333352
0.333351
0.33335
0.333321
0.332435
0.313954
0.142512
0.129984
0.309513
0.333117
0.334246
0.334114
0.333735
0.333531
0.333422
0.333375
0.333357
0.333352
0.333351
0.33335
0.33335
0.33335
0.33335
0.33335
0.33335
0.33335
0.33335
0.33335
0.33335
0.33335
0.33335
0.333349
0.333348
0.333318
0.332402
0.31357
0.141334
0.130046
0.309701
0.333142
0.334234
0.334102
0.333721
0.333525
0.333419
0.333372
0.333356
0.333351
0.33335
0.33335
0.33335
0.33335
0.33335
0.33335
0.33335
0.33335
0.33335
0.33335
0.33335
0.33335
0.33335
0.333349
0.333348
0.333317
0.33237
0.313192
0.14022
0.130501
0.309907
0.333153
0.334206
0.33408
0.333701
0.333516
0.333412
0.333369
0.333355
0.333351
0.33335
0.33335
0.33335
0.33335
0.33335
0.33335
0.33335
0.33335
0.33335
0.33335
0.33335
0.33335
0.33335
0.33335
0.333348
0.333316
0.332342
0.312839
0.139189
0.130975
0.309975
0.333154
0.334148
0.334046
0.333669
0.3335
0.333406
0.333368
0.333354
0.333351
0.33335
0.33335
0.33335
0.33335
0.33335
0.33335
0.33335
0.33335
0.33335
0.33335
0.33335
0.33335
0.33335
0.33335
0.333349
0.333314
0.332315
0.312518
0.138253
0.131321
0.309973
0.333141
0.334068
0.333995
0.333639
0.333487
0.333401
0.333366
0.333354
0.333351
0.33335
0.33335
0.33335
0.33335
0.33335
0.33335
0.33335
0.33335
0.33335
0.33335
0.33335
0.33335
0.33335
0.33335
0.333349
0.333314
0.332292
0.312224
0.137406
0.131463
0.309903
0.333088
0.333991
0.333941
0.333615
0.333477
0.333397
0.333365
0.333354
0.333351
0.33335
0.33335
0.33335
0.33335
0.33335
0.33335
0.33335
0.33335
0.33335
0.33335
0.33335
0.33335
0.33335
0.33335
0.333349
0.333313
0.33227
0.311952
0.136639
0.131482
0.309861
0.332997
0.33393
0.333892
0.333595
0.333468
0.333393
0.333363
0.333353
0.333351
0.33335
0.33335
0.33335
0.33335
0.33335
0.33335
0.33335
0.33335
0.33335
0.33335
0.33335
0.33335
0.33335
0.33335
0.333349
0.333312
0.332249
0.311699
0.135941
0.13147
0.309865
0.332915
0.333878
0.333844
0.333574
0.333458
0.33339
0.333362
0.333353
0.33335
0.33335
0.33335
0.33335
0.33335
0.33335
0.33335
0.33335
0.33335
0.33335
0.33335
0.33335
0.33335
0.33335
0.33335
0.333349
0.333311
0.33223
0.311465
0.135304
0.131395
0.309909
0.332839
0.333829
0.333798
0.333555
0.333449
0.333386
0.333361
0.333352
0.33335
0.33335
0.33335
0.33335
0.33335
0.33335
0.33335
0.33335
0.33335
0.33335
0.33335
0.33335
0.33335
0.33335
0.33335
0.333349
0.33331
0.332211
0.311249
0.134724
0.131394
0.309901
0.332764
0.33378
0.333755
0.333535
0.333439
0.333382
0.33336
0.333352
0.33335
0.33335
0.33335
0.33335
0.33335
0.33335
0.33335
0.33335
0.33335
0.33335
0.33335
0.33335
0.33335
0.33335
0.33335
0.333349
0.33331
0.332195
0.311056
0.134202
0.131319
0.309902
0.332692
0.333731
0.333713
0.333516
0.333431
0.333379
0.333359
0.333352
0.33335
0.33335
0.33335
0.33335
0.33335
0.33335
0.33335
0.33335
0.33335
0.33335
0.33335
0.33335
0.33335
0.33335
0.33335
0.333349
0.333309
0.33218
0.310881
0.133733
0.131283
0.309913
0.332622
0.333682
0.333671
0.333498
0.333422
0.333376
0.333358
0.333352
0.33335
0.33335
0.33335
0.33335
0.33335
0.33335
0.33335
0.33335
0.33335
0.33335
0.33335
0.33335
0.33335
0.33335
0.33335
0.333349
0.333308
0.332167
0.310724
0.133314
0.131279
0.309892
0.332549
0.333631
0.33363
0.333479
0.333413
0.333373
0.333357
0.333351
0.33335
0.33335
0.33335
0.33335
0.33335
0.33335
0.33335
0.33335
0.33335
0.33335
0.33335
0.33335
0.33335
0.33335
0.33335
0.333349
0.333308
0.332155
0.310588
0.132945
0.131241
0.309902
0.332482
0.333576
0.333587
0.333459
0.333404
0.333369
0.333356
0.333351
0.33335
0.33335
0.33335
0.33335
0.33335
0.33335
0.33335
0.33335
0.33335
0.33335
0.33335
0.33335
0.33335
0.33335
0.33335
0.333349
0.333307
0.332145
0.310468
0.132623
0.131271
0.309927
0.332427
0.333522
0.333543
0.333438
0.333394
0.333366
0.333355
0.333351
0.33335
0.33335
0.33335
0.33335
0.33335
0.33335
0.33335
0.33335
0.33335
0.33335
0.33335
0.33335
0.33335
0.33335
0.33335
0.333349
0.333307
0.332136
0.310366
0.132345
0.131395
0.310089
0.332419
0.333476
0.333503
0.333416
0.333383
0.333362
0.333353
0.333351
0.33335
0.33335
0.33335
0.33335
0.33335
0.33335
0.33335
0.33335
0.33335
0.33335
0.33335
0.33335
0.33335
0.33335
0.33335
0.333349
0.333307
0.332129
0.310282
0.13211
0.132055
0.311332
0.332797
0.333481
0.333471
0.333396
0.333373
0.333358
0.333352
0.33335
0.33335
0.33335
0.33335
0.33335
0.33335
0.33335
0.33335
0.33335
0.33335
0.33335
0.33335
0.33335
0.33335
0.33335
0.33335
0.333349
0.333306
0.332123
0.310212
0.131914
0.133929
0.244537
0.330573
0.333845
0.333487
0.333381
0.333364
0.333354
0.333351
0.33335
0.33335
0.33335
0.33335
0.33335
0.33335
0.33335
0.33335
0.33335
0.33335
0.33335
0.33335
0.33335
0.33335
0.33335
0.33335
0.333349
0.333306
0.332119
0.310159
0.131756
0.145535
0.156725
0.19016
0.323901
0.333676
0.333394
0.333358
0.333351
0.33335
0.33335
0.33335
0.33335
0.33335
0.33335
0.33335
0.33335
0.33335
0.33335
0.33335
0.33335
0.33335
0.33335
0.33335
0.33335
0.33335
0.333349
0.333306
0.332116
0.31012
0.131634
0.146595
0.214724
0.158143
0.156523
0.326601
0.333476
0.333365
0.333349
0.333349
0.33335
0.33335
0.33335
0.33335
0.33335
0.33335
0.33335
0.33335
0.33335
0.33335
0.33335
0.33335
0.33335
0.33335
0.33335
0.33335
0.333349
0.333306
0.332115
0.310096
0.131545
0.156011
0.325002
0.33698
0.337464
0.337519
0.337561
0.337603
0.337645
0.337688
0.33773
0.337773
0.337816
0.33786
0.337904
0.337948
0.337993
0.338038
0.338083
0.338128
0.338176
0.338227
0.338288
0.338372
0.338502
0.338711
0.339004
0.339098
0.33711
0.308971
0.137665
0.147512
0.316785
0.333642
0.33441
0.33446
0.334486
0.334513
0.33454
0.334567
0.334596
0.334624
0.334654
0.334685
0.334716
0.334748
0.334781
0.334815
0.33485
0.334886
0.334925
0.334969
0.335026
0.335109
0.335246
0.335471
0.335794
0.335925
0.334541
0.307604
0.121523
0.145169
0.314864
0.332668
0.333498
0.333532
0.33354
0.333547
0.333555
0.333562
0.33357
0.333578
0.333586
0.333595
0.333604
0.333613
0.333623
0.333633
0.333644
0.333656
0.333669
0.333687
0.333718
0.333778
0.333895
0.334108
0.334441
0.334571
0.333571
0.311197
0.126671
0.143749
0.314333
0.332483
0.333341
0.33337
0.333372
0.333373
0.333375
0.333376
0.333378
0.333379
0.33338
0.333382
0.333383
0.333385
0.333387
0.333388
0.33339
0.333393
0.333396
0.333405
0.333426
0.333476
0.333587
0.333797
0.334149
0.33428
0.333222
0.310795
0.130414
0.142512
0.313955
0.332435
0.333321
0.33335
0.333351
0.333352
0.333352
0.333352
0.333353
0.333353
0.333353
0.333353
0.333353
0.333354
0.333354
0.333354
0.333354
0.333355
0.333357
0.333363
0.333381
0.333429
0.333539
0.333748
0.334121
0.334252
0.333108
0.309695
0.130283
0.141333
0.313568
0.332401
0.333318
0.333348
0.333349
0.33335
0.33335
0.33335
0.33335
0.33335
0.33335
0.33335
0.33335
0.33335
0.33335
0.33335
0.33335
0.333351
0.333352
0.333357
0.333375
0.333422
0.333531
0.333735
0.334114
0.334246
0.333118
0.309522
0.129918
0.140221
0.313193
0.332371
0.333317
0.333348
0.333349
0.33335
0.33335
0.33335
0.33335
0.33335
0.33335
0.33335
0.33335
0.33335
0.33335
0.33335
0.33335
0.33335
0.333351
0.333356
0.333372
0.333419
0.333525
0.333722
0.334102
0.334234
0.333142
0.309706
0.130134
0.13919
0.312839
0.332342
0.333316
0.333348
0.33335
0.33335
0.33335
0.33335
0.33335
0.33335
0.33335
0.33335
0.33335
0.33335
0.33335
0.33335
0.33335
0.33335
0.333351
0.333355
0.333369
0.333412
0.333516
0.333701
0.33408
0.334206
0.333152
0.309895
0.130453
0.138252
0.312517
0.332315
0.333314
0.333349
0.33335
0.33335
0.33335
0.33335
0.33335
0.33335
0.33335
0.33335
0.33335
0.33335
0.33335
0.33335
0.33335
0.33335
0.333351
0.333354
0.333368
0.333406
0.3335
0.333669
0.334046
0.334148
0.333155
0.309985
0.130981
0.137407
0.312225
0.332292
0.333314
0.333349
0.33335
0.33335
0.33335
0.33335
0.33335
0.33335
0.33335
0.33335
0.33335
0.33335
0.33335
0.33335
0.33335
0.33335
0.333351
0.333354
0.333366
0.333401
0.333487
0.333639
0.333995
0.334068
0.33314
0.30996
0.131342
0.136639
0.31195
0.33227
0.333313
0.333349
0.33335
0.33335
0.33335
0.33335
0.33335
0.33335
0.33335
0.33335
0.33335
0.33335
0.33335
0.33335
0.33335
0.33335
0.333351
0.333354
0.333365
0.333397
0.333477
0.333615
0.333941
0.333991
0.333089
0.309917
0.131415
0.13594
0.311699
0.332249
0.333312
0.333349
0.33335
0.33335
0.33335
0.33335
0.33335
0.33335
0.33335
0.33335
0.33335
0.33335
0.33335
0.33335
0.33335
0.33335
0.333351
0.333353
0.333363
0.333393
0.333468
0.333595
0.333892
0.33393
0.332997
0.309861
0.13152
0.135305
0.311466
0.33223
0.333311
0.333349
0.33335
0.33335
0.33335
0.33335
0.33335
0.33335
0.33335
0.33335
0.33335
0.33335
0.33335
0.33335
0.33335
0.33335
0.33335
0.333353
0.333362
0.33339
0.333458
0.333574
0.333844
0.333878
0.332915
0.309858
0.131464
0.134724
0.311249
0.332211
0.33331
0.333349
0.33335
0.33335
0.33335
0.33335
0.33335
0.33335
0.33335
0.33335
0.33335
0.33335
0.33335
0.33335
0.33335
0.33335
0.33335
0.333352
0.333361
0.333386
0.333449
0.333555
0.333798
0.333829
0.332839
0.30991
0.13139
0.134201
0.311056
0.332195
0.33331
0.333349
0.33335
0.33335
0.33335
0.33335
0.33335
0.33335
0.33335
0.33335
0.33335
0.33335
0.33335
0.33335
0.33335
0.33335
0.33335
0.333352
0.33336
0.333382
0.333439
0.333535
0.333755
0.33378
0.332764
0.309907
0.13139
0.133733
0.310881
0.33218
0.333309
0.333349
0.33335
0.33335
0.33335
0.33335
0.33335
0.33335
0.33335
0.33335
0.33335
0.33335
0.33335
0.33335
0.33335
0.33335
0.33335
0.333352
0.333359
0.333379
0.333431
0.333516
0.333713
0.333731
0.332691
0.309895
0.131332
0.133314
0.310724
0.332167
0.333308
0.333349
0.33335
0.33335
0.33335
0.33335
0.33335
0.33335
0.33335
0.33335
0.33335
0.33335
0.33335
0.33335
0.33335
0.33335
0.33335
0.333352
0.333358
0.333376
0.333422
0.333498
0.333671
0.333682
0.332622
0.309914
0.131272
0.132945
0.310587
0.332155
0.333308
0.333349
0.33335
0.33335
0.33335
0.33335
0.33335
0.33335
0.33335
0.33335
0.33335
0.33335
0.33335
0.33335
0.33335
0.33335
0.33335
0.333351
0.333357
0.333373
0.333413
0.333479
0.33363
0.333631
0.33255
0.309901
0.131276
0.132624
0.310469
0.332145
0.333307
0.333349
0.33335
0.33335
0.33335
0.33335
0.33335
0.33335
0.33335
0.33335
0.33335
0.33335
0.33335
0.33335
0.33335
0.33335
0.33335
0.333351
0.333356
0.333369
0.333404
0.333459
0.333587
0.333576
0.332481
0.30989
0.131257
0.132345
0.310366
0.332136
0.333307
0.333349
0.33335
0.33335
0.33335
0.33335
0.33335
0.33335
0.33335
0.33335
0.33335
0.33335
0.33335
0.33335
0.33335
0.33335
0.33335
0.333351
0.333355
0.333366
0.333394
0.333438
0.333543
0.333522
0.332427
0.309929
0.131257
0.132109
0.310282
0.332129
0.333307
0.333349
0.33335
0.33335
0.33335
0.33335
0.33335
0.33335
0.33335
0.33335
0.33335
0.33335
0.33335
0.33335
0.33335
0.33335
0.33335
0.333351
0.333353
0.333362
0.333383
0.333416
0.333503
0.333476
0.33242
0.310101
0.131393
0.131915
0.310213
0.332124
0.333306
0.333349
0.33335
0.33335
0.33335
0.33335
0.33335
0.33335
0.33335
0.33335
0.33335
0.33335
0.33335
0.33335
0.33335
0.33335
0.33335
0.33335
0.333352
0.333358
0.333373
0.333396
0.333471
0.333481
0.332798
0.311318
0.132073
0.131757
0.310159
0.332119
0.333306
0.333349
0.33335
0.33335
0.33335
0.33335
0.33335
0.33335
0.33335
0.33335
0.33335
0.33335
0.33335
0.33335
0.33335
0.33335
0.33335
0.33335
0.333351
0.333354
0.333364
0.333381
0.333488
0.333848
0.330527
0.244141
0.133917
0.131634
0.31012
0.332116
0.333306
0.333349
0.33335
0.33335
0.33335
0.33335
0.33335
0.33335
0.33335
0.33335
0.33335
0.33335
0.33335
0.33335
0.33335
0.33335
0.33335
0.33335
0.33335
0.333351
0.333358
0.333394
0.333677
0.323768
0.189897
0.156731
0.14555
0.131545
0.310096
0.332115
0.333306
0.333349
0.33335
0.33335
0.33335
0.33335
0.33335
0.33335
0.33335
0.33335
0.33335
0.33335
0.33335
0.33335
0.33335
0.33335
0.33335
0.33335
0.333349
0.333349
0.333365
0.333476
0.326534
0.156322
0.158267
0.214954
0.146649
0.103763
0.103984
0.104206
0.104428
0.10465
0.104872
0.105095
0.105317
0.105539
0.105761
0.105984
0.106206
0.106428
0.106651
0.106873
0.107096
0.107318
0.107541
0.107763
0.107986
0.108208
0.108431
0.108654
0.108877
0.109099
0.109322
0.109545
0.109768
0.109991
0.110214
0.110437
0.11066
0.110883
0.111106
0.111329
0.111552
0.111776
0.111999
0.112222
0.112445
0.112669
0.112892
0.113115
0.113339
0.113562
0.113786
0.114009
0.114233
0.114456
0.11468
0.114904
0.115127
0.115351
0.115575
0.115798
0.116022
0.116246
0.11647
0.116694
0.116918
0.117142
0.117366
0.11759
0.117814
0.118038
0.118262
0.118486
0.11871
0.118934
0.119159
0.119383
0.119607
0.119831
0.120056
0.12028
0.120504
0.120729
0.120953
0.121178
0.121402
0.121627
0.121851
0.122076
0.1223
0.122525
0.12275
0.122974
0.123199
0.123424
0.123649
0.123873
0.124098
0.124323
0.124548
0.124773
0.124998
0.125223
0.125448
0.125673
0.125898
0.126123
0.126348
0.126573
0.126798
0.127023
0.127248
0.127474
0.127699
0.127924
0.128149
0.128375
0.1286
0.128825
0.129051
0.129276
0.129502
0.129727
0.129952
0.130178
0.130404
0.130629
0.130855
0.13108
0.131305
0.131527
0.293544
0.293767
0.293944
0.294116
0.294287
0.294457
0.294626
0.294794
0.294962
0.295129
0.295295
0.29546
0.295625
0.295789
0.295952
0.296114
0.296275
0.296436
0.296596
0.296755
0.296914
0.297072
0.297229
0.297385
0.297541
0.297696
0.29785
0.298004
0.298156
0.298308
0.29846
0.29861
0.29876
0.29891
0.299058
0.299206
0.299353
0.2995
0.299646
0.299791
0.299935
0.300079
0.300223
0.300365
0.300507
0.300648
0.300789
0.300929
0.301068
0.301207
0.301345
0.301482
0.301619
0.301755
0.30189
0.302025
0.302159
0.302293
0.302426
0.302558
0.30269
0.302821
0.302952
0.303082
0.303211
0.30334
0.303468
0.303596
0.303723
0.30385
0.303976
0.304101
0.304226
0.30435
0.304473
0.304596
0.304719
0.304841
0.304962
0.305083
0.305203
0.305323
0.305442
0.305561
0.305679
0.305796
0.305913
0.30603
0.306146
0.306261
0.306376
0.30649
0.306604
0.306718
0.30683
0.306943
0.307055
0.307166
0.307277
0.307387
0.307497
0.307606
0.307715
0.307823
0.307931
0.308038
0.308145
0.308252
0.308357
0.308463
0.308568
0.308672
0.308776
0.30888
0.308983
0.309085
0.309188
0.309289
0.309391
0.309491
0.309591
0.309691
0.309791
0.309893
0.31001
0.330104
0.33014
0.330167
0.330193
0.330218
0.330243
0.330268
0.330293
0.330318
0.330342
0.330366
0.33039
0.330414
0.330437
0.33046
0.330483
0.330506
0.330529
0.330551
0.330573
0.330595
0.330617
0.330639
0.33066
0.330682
0.330703
0.330724
0.330744
0.330765
0.330785
0.330805
0.330825
0.330845
0.330865
0.330884
0.330904
0.330923
0.330942
0.33096
0.330979
0.330998
0.331016
0.331034
0.331052
0.33107
0.331088
0.331105
0.331123
0.33114
0.331157
0.331174
0.331191
0.331207
0.331224
0.33124
0.331256
0.331273
0.331289
0.331304
0.33132
0.331336
0.331351
0.331366
0.331381
0.331396
0.331411
0.331426
0.331441
0.331455
0.33147
0.331484
0.331498
0.331512
0.331526
0.33154
0.331554
0.331567
0.331581
0.331594
0.331607
0.33162
0.331633
0.331646
0.331659
0.331672
0.331684
0.331697
0.331709
0.331722
0.331734
0.331746
0.331758
0.33177
0.331781
0.331793
0.331805
0.331816
0.331828
0.331839
0.33185
0.331861
0.331872
0.331883
0.331894
0.331905
0.331915
0.331926
0.331937
0.331947
0.331957
0.331968
0.331978
0.331988
0.331998
0.332008
0.332018
0.332027
0.332037
0.332047
0.332056
0.332066
0.332075
0.332084
0.332094
0.332105
0.333174
0.333177
0.333179
0.333181
0.333183
0.333185
0.333187
0.333189
0.333191
0.333193
0.333195
0.333196
0.333198
0.3332
0.333202
0.333203
0.333205
0.333207
0.333208
0.33321
0.333212
0.333213
0.333215
0.333216
0.333218
0.333219
0.333221
0.333222
0.333224
0.333225
0.333227
0.333228
0.333229
0.333231
0.333232
0.333233
0.333235
0.333236
0.333237
0.333238
0.33324
0.333241
0.333242
0.333243
0.333245
0.333246
0.333247
0.333248
0.333249
0.33325
0.333251
0.333253
0.333254
0.333255
0.333256
0.333257
0.333258
0.333259
0.33326
0.333261
0.333262
0.333263
0.333264
0.333265
0.333266
0.333266
0.333267
0.333268
0.333269
0.33327
0.333271
0.333272
0.333273
0.333273
0.333274
0.333275
0.333276
0.333277
0.333277
0.333278
0.333279
0.33328
0.333281
0.333281
0.333282
0.333283
0.333283
0.333284
0.333285
0.333286
0.333286
0.333287
0.333288
0.333288
0.333289
0.33329
0.33329
0.333291
0.333291
0.333292
0.333293
0.333293
0.333294
0.333294
0.333295
0.333296
0.333296
0.333297
0.333297
0.333298
0.333298
0.333299
0.333299
0.3333
0.333301
0.333301
0.333302
0.333302
0.333303
0.333303
0.333304
0.333304
0.333304
0.333305
0.333306
0.333343
0.333343
0.333343
0.333343
0.333343
0.333343
0.333343
0.333344
0.333344
0.333344
0.333344
0.333344