/*--------------------------------*- C++ -*----------------------------------*\
| =========                 |                                                 |
| \\      /  F ield         | OpenFOAM: The Open Source CFD Toolbox           |
|  \\    /   O peration     | Version:  2112                                  |
|   \\  /    A nd           | Website:  www.openfoam.com                      |
|    \\/     M anipulation  |                                                 |
\*---------------------------------------------------------------------------*/
FoamFile
{
    version     2.0;
    format      ascii;
    arch        "LSB;label=32;scalar=64";
    class       volScalarField;
    location    "0.00549";
    object      k;
}
// * * * * * * * * * * * * * * * * * * * * * * * * * * * * * * * * * * * * * //

dimensions      [0 2 -2 0 0 0 0];

internalField   nonuniform List<scalar> 
13875
(
812.103
3462.63
3540.4
3539.17
3541.23
3539.79
3541.17
3542.9
3540.95
3539.93
3540.78
3541.27
3540.78
3540.1
3540.43
3541.24
3542.28
3540.93
3540.71
3540.36
3541.21
3539.07
3540.08
3461.98
820.332
881.801
2936.62
3013.06
3000.69
3001.01
2998.27
2996.68
2997.24
2996.92
2997.93
2997.8
2998.43
2996.62
2996.32
2996.13
2998.44
2996.53
2997.43
2997.05
2998.8
3000.57
2999.32
3011.62
2934.55
894.311
993.365
2710.85
2777.5
2755.55
2758.72
2754.94
2745.16
2743.47
2742.99
2743.89
2743.25
2744.67
2751.61
2752.13
2750.81
2744.77
2741.69
2743.2
2745.49
2755.39
2757.85
2753.19
2774.51
2706.76
998.245
1091.06
2533.68
2581.01
2561.8
2566.54
2562.69
2551.69
2550.05
2548.88
2548.08
2547.33
2548.77
2559.51
2560.01
2558.78
2548.96
2547.93
2547.71
2551.34
2563.09
2565.62
2559.41
2579.14
2529.38
1093.88
1172.09
2380.45
2413.18
2393.18
2397.85
2393.88
2382.63
2381.5
2380.54
2379.32
2379.09
2379.81
2390.53
2391.44
2389.84
2380.03
2379.7
2379.03
2382.5
2394.15
2396.92
2391.19
2410.48
2375.35
1177.52
1240.98
2237.09
2270.92
2245.16
2250.95
2245.5
2233.28
2232.36
2231.4
2229.99
2230.27
2230.33
2241.12
2242.35
2240.49
2230.48
2230.95
2229.8
2233.18
2245.77
2250.08
2243.75
2267.86
2247.24
1247.42
1320.96
2121.78
2158.31
2120.5
2122.94
2115.52
2101.57
2100.28
2098.86
2097.38
2098.09
2097.49
2108.48
2109.76
2107.61
2097.56
2099
2097.52
2101.68
2115.6
2121.93
2119.82
2154.07
2095.71
1323.55
1409.76
2000.66
2073.5
2019.59
2016.05
2002.7
1985.99
1983.08
1980.95
1979.56
1980.78
1979.24
1990.53
1992.08
1989.62
1979.25
1981.95
1980.42
1985.59
2002.22
2014.12
2018.01
2068.23
1992.79
1420.31
1691.44
2029.47
2022.07
1944.62
1925.19
1905.44
1885.29
1880.05
1876.69
1875.35
1877.4
1875.13
1886.58
1888.48
1885.79
1875.29
1878.81
1877.21
1883.65
1903.91
1922.91
1942.38
2017.94
2033.65
1716.58
2509
2284.92
2017.72
1900.91
1859.77
1828.04
1804.93
1797.67
1793.28
1792.18
1794.38
1791.84
1802.79
1805.03
1802.41
1793.06
1796.08
1795.67
1802.06
1825.08
1855.94
1892.56
2011.2
2265.49
2528.5
3877.55
3028.26
2154.41
1917.98
1818.89
1775.27
1748.92
1736.59
1731.18
1730.18
1731.97
1729.41
1739.27
1741.92
1740.22
1733.24
1735.32
1736.86
1746.08
1770.85
1814.81
1908.48
2130.66
2938.22
3858.5
5187.24
6465.33
2854.27
1995.93
1859.2
1763.3
1717.73
1700.02
1692
1690.19
1690.92
1688.75
1696.7
1699.83
1699.49
1695.12
1697.08
1702.21
1714.79
1759.89
1847.44
1971.81
2785.55
6328.65
5118.95
5060.15
7650.37
7048.97
3334.2
2051.05
1806.48
1750.92
1707.86
1692.43
1686.08
1684.04
1681.41
1687.02
1690.64
1692.3
1691.99
1698.68
1713.47
1752.9
1815.78
2095.06
3229.42
6754.97
7654.37
5010.31
4828.25
6378.62
7189
8776.13
5172.02
2354.94
1917.47
1815.04
1774.31
1765.75
1763.77
1761.85
1766.49
1770.08
1772.31
1772.23
1780.25
1817.21
1950.13
2468.52
5692.02
8136.5
6960.91
6337.48
4831
4610.81
5546.49
6071.47
7051.18
6794.78
6809.29
3561.64
2496.54
2264.42
2126.48
2086.51
2069.94
2071.64
2078.14
2090.63
2123.16
2233.27
2484
3509.52
6866.15
6966.59
6715.89
5968.02
5499.84
4683.84
4311.84
4834.78
5183.52
5999.82
6111.5
6648.44
5723.63
5028.33
5273.57
4917.1
4757.02
4837.47
4891.9
4875.12
4793.47
4783.52
5435.39
5262.66
5714.27
6798.62
6173.22
5785.14
5096.9
4788.13
4373.25
3774.96
4110.13
4454.82
5267.19
5760.12
6696.2
7849.04
9408.45
7897.18
6652.21
6546.87
6782.66
6878.28
6858.3
6721.26
6549.8
7624.91
9507.73
8364.1
6865.13
5817.06
5164.13
4326.92
3999.37
3750.17
3116.52
3488.03
4188.33
5211.74
5801.39
6485.68
7924.06
9484.44
6795.42
5412.75
5179.82
5277.92
5370.36
5340.6
5271.96
5415.13
6625.56
8966.37
8183.18
6655.04
5965.85
5302.91
4165.2
3410.47
3069.25
2668.56
3300.29
4278.24
5770.12
6313.82
5887.87
6502.9
7612.88
6444.88
5188.89
4653.37
4535.18
4554.14
4580.06
4668.7
5060.2
6158.48
7362.03
6687.97
5950.38
6470.62
6012.75
4347.81
3320.27
2663.15
2557.42
3438.03
4666.33
5900.17
5888.73
5265.63
5448.12
6305.1
6010.73
5059.58
4336
4011.3
3955.64
4062.71
4357.01
4938.23
5771.24
6144.51
5541.82
5321.15
5961.98
5975.02
4776.46
3563.03
2565.45
2995.36
6415.27
5229.55
5024.03
5056.19
4622.92
4717.16
5449.81
5513.64
4780.08
3994.49
3562.07
3471.23
3641.73
4054.94
4691.21
5305.48
5325.49
4780.34
4689.13
5126.01
5098.25
5494.82
6739.9
2781.68
8844.53
16125.2
6027.14
4330.44
4383.12
4084.73
4184.87
4827.92
5017.11
4405.74
3632.22
3166.65
3055.65
3251.71
3696.57
4318.48
4823.91
4734.2
4239.12
4144.6
4430.08
4396.65
6343.17
16565.1
8286.84
10527.9
13815
5514.01
3842.62
3840.13
3653.15
3754.56
4325.01
4543.82
4003.96
3276.42
2819.61
2698.4
2889.4
3320.89
3905.98
4359.1
4243.39
3796.47
3702.2
3863.05
3885.99
5714.73
16590.6
11098.2
10355.6
11585.6
4752.35
3466.94
3403.89
3293.4
3387.21
3885.81
4105.2
3597.16
2922.03
2505.67
2395.83
2576.22
2975.13
3512.59
3937.85
3810.46
3414.73
3346.66
3435.58
3508.42
4919.21
12730.2
11260.7
10054.4
10227.4
4212.43
3187.79
3066.56
2986.23
3084.62
3511.36
3708.43
3236.68
2620.83
2241.68
2142.07
2306.53
2672.57
3163.18
3553.85
3436.71
3097.35
3039.45
3104.9
3229.59
4347.66
11298.3
10851.1
9705.57
9591.6
3802.35
2949.76
2797.19
2728.82
2831.48
3192.56
3349.78
2915.56
2362.6
2019.07
1927.63
2075.25
2403.13
2838.79
3193.09
3112.1
2830.43
2770.3
2831.82
2987.7
3874.25
10003.9
10316.7
9342.23
8730.96
3444.5
2735.98
2577.34
2511.4
2621.73
2916.4
3016.34
2617.75
2130.47
1827.35
1745.98
1881.31
2177.34
2565.11
2885.68
2837.41
2605.33
2544.6
2618.58
2783.58
3540.16
9241.82
9972.97
9139.33
8183.99
3189.08
2547.77
2395.57
2335.94
2438.75
2677.17
2729.61
2365.74
1936.16
1665.74
1591.49
1713.7
1976.99
2317.38
2604.77
2594.5
2413.81
2356.93
2433.16
2594.32
3283.61
8717.43
9670.79
9046.56
7817.29
2993.23
2389.97
2242.47
2192.55
2282.72
2467.62
2478.66
2148.92
1769.67
1527
1458.63
1567.96
1800.41
2099.44
2357.76
2379.74
2248.36
2200.26
2273.97
2430.24
3070.34
8179.8
9377.88
8828.04
7438.45
2845.57
2246.39
2108.64
2076.59
2148.18
2275.32
2244.64
1946.53
1617.43
1405.16
1344.17
1446.2
1655.33
1919.1
2150.14
2195.5
2105.97
2072.72
2133.53
2287.25
2938.93
7960.16
9228.69
8558.47
7119.77
2757.71
2134.74
1994.15
1969.16
2026.33
2110.42
2050.85
1781.41
1490.77
1300.58
1244.68
1337.39
1523.27
1756.7
1965.73
2031.13
1980.09
1957.29
2009.61
2170.36
2840.21
7659.51
8972.55
8344.83
6804.29
2698.74
2053.27
1897.67
1871.71
1916.45
1963.73
1883.74
1639.35
1381.54
1210.19
1158.51
1243.12
1409.12
1616.29
1805.54
1885.77
1865.96
1853.1
1906.67
2081.94
2777.97
7257.79
8679.37
8059.24
6399.43
2651.67
1995.89
1815.33
1782.88
1814.09
1830.17
1731.34
1510.76
1282.36
1129.59
1082.93
1161.8
1312.49
1499.8
1672.24
1759.42
1761.99
1757.63
1815.5
2017.23
2728.69
6922.53
8396.45
7869.48
6082.57
2642.64
1972.09
1750.47
1700.68
1718.54
1712.73
1600.69
1402.37
1198.43
1060.25
1016.82
1089.28
1225.18
1392.6
1549.46
1644.87
1665.68
1673.26
1740.58
1976.89
2708.85
6547.67
8101.62
7716.26
5818.58
2600.98
1968.68
1707.84
1625.24
1628.84
1606.94
1489.02
1309.57
1124.63
998.681
958.266
1025.01
1148.65
1301.04
1444.73
1543.64
1576.45
1594.6
1690.87
1964.85
2670.09
6166.67
7858.99
7480.14
5477.48
2503.9
1981.7
1682.46
1560.48
1545.8
1506.72
1386.44
1223.35
1057.3
943.793
906.648
969.614
1083.17
1221.76
1353.13
1453.62
1495.72
1528.62
1660.21
1974.84
2579.99
5883.37
7674.33
7298.94
5234.58
2413.72
2024.23
1674.45
1508.07
1470.99
1417.08
1299.46
1151.94
999.566
895.262
860.32
918.701
1022.7
1150.71
1270.69
1369.38
1423.59
1475.16
1647.61
2005.12
2477.35
5548.76
7439.34
7156.06
5028.09
2347.52
2054.78
1693.29
1469.47
1406.49
1337.88
1223.13
1086.82
948.207
852.255
819.442
873.726
969.15
1086.18
1197.69
1294.99
1362.75
1437.05
1664.33
2042.61
2387.94
5310.67
7243.38
6967.48
4806.15
2237.75
2015.19
1718.21
1444.36
1350.66
1266.41
1154.03
1027.99
900.807
812.829
782.452
833.869
922.822
1031.74
1134.84
1230.35
1310.22
1411.24
1696.57
2032.8
2311.56
5095.49
7087.52
6817.36
4636.62
2130.65
1956.42
1786.88
1434.13
1309.78
1207.24
1095.44
975.856
859.511
778.167
749.401
797.423
879.336
979.839
1078.25
1173.44
1271.17
1401.47
1765.3
1975.67
2193.45
4852.89
6932.01
6704.94
4511.27
2044
1879.44
1827.84
1447.53
1278.08
1159.75
1045.41
930.719
822.591
746.49
719.159
764.038
840.279
934.231
1029.59
1127.55
1243.66
1418.77
1818.76
1902.57
2079.28
4657.74
6808.96
6575.35
4375.74
1947.24
1788.6
1803.96
1481.64
1256.9
1122.92
1002.97
889.772
788.28
717.6
691.821
734.646
806.089
895.998
990.819
1094.96
1227.19
1465.28
1812.88
1820.8
2004.08
4510.02
6726.57
6476.67
4264.87
1873.01
1698.22
1736.58
1566.51
1260.5
1095.73
973.019
857.33
759.201
691.631
666.574
706.997
774.821
862.261
961.789
1070.03
1233.57
1552.1
1749.4
1728.29
1912.86
4364.53
6597.15
6395.06
4175.48
1839.9
1619.23
1658.25
1600.47
1298.84
1078.42
949.609
831.372
734.442
668.757
643.759
682.635
747.804
834.83
939.294
1055.52
1279.65
1597.28
1670.38
1643.29
1840.83
4244.4
6495.85
6288.87
4079.28
1772.45
1546.35
1574.4
1552.07
1379.2
1079.37
930.53
811.412
714.029
648.845
623.578
662.033
726.892
816.194
922.962
1063.83
1382.29
1548.39
1584.53
1572.19
1814.43
4145.97
6403.68
6198.72
3983.32
1752.36
1485.6
1491.97
1489.28
1428.63
1128.96
919.832
795.399
699.958
633.767
607.158
646.009
711.382
799.308
911.283
1117.35
1433.06
1489.11
1501.32
1506.41
1770.95
4030.78
6304.08
6104.13
3901.74
1750.25
1437.67
1422.7
1420.74
1395.17
1225.58
933.555
783.192
687.73
622.735
594.383
634.02
698.127
786.235
922.999
1223.03
1398.98
1423.88
1432.16
1452.76
1745.11
3921.02
6196.94
5962.68
3786.22
1718.28
1391.89
1361.22
1351.73
1343.22
1286
993.607
778.998
676.598
613.013
585.054
623.937
687.223
783.137
992.603
1283.24
1347.67
1357.85
1372.07
1411.64
1743.89
3809.25
6048.74
5750.28
3650.93
1693.49
1353.09
1308.2
1290.05
1288.87
1261.44
1102.85
807.999
670.913
604.259
576.328
614.341
681.05
810.041
1106.12
1257.16
1292.95
1298.39
1319.43
1370.83
1711.87
3659.32
5831.54
5280.34
3432.69
1667.25
1317.05
1262.71
1238.44
1232.25
1217.21
1164.29
898.059
683.242
599.89
570.705
609.004
692.094
905.196
1166.27
1214.89
1236.94
1247.78
1274.68
1331.13
1669.65
3425.61
5364.57
596.864
925.362
1167.47
1281.61
1323.92
1316.62
1296.35
1278.54
1296.58
1341.25
1397.26
1441.3
1460.25
1343.64
1212.59
1151.01
1107.04
1069.48
1047.46
1032.37
1019.91
1008.63
999.103
986.54
965.956
924.069
857.013
756.918
617.641
445.564
661.258
970.434
1198.47
1305.81
1357.31
1345.71
1316.22
1288.04
1295.3
1338.44
1397.14
1449.87
1479.88
1400.31
1241.17
1163.9
1118.24
1070.84
1041.41
1023.93
1009.6
996.32
985.047
971.673
950.988
909.16
841.074
739.908
602.172
440.635
714.682
1028.05
1252.87
1346.62
1411.42
1399.33
1354.08
1309
1292.6
1323.98
1376.61
1430.93
1463.81
1428.52
1259.8
1167.96
1118.2
1066.95
1029.29
1009.83
994.308
979.703
967.243
952.57
930.364
888.625
820.325
719.698
585.661
435.732
770.796
1088.12
1325.34
1420.16
1489.09
1471.86
1416.99
1347.51
1303.96
1312.63
1354.3
1406.8
1450.45
1438.78
1287.45
1177.29
1120.59
1065.93
1017.19
994.904
977.647
961.497
947.847
931.575
907.497
865.354
797.011
697.738
568.49
429.127
824.106
1150.11
1432.66
1550.16
1632.17
1609.86
1528
1413.02
1328.69
1303.25
1325.17
1369.69
1420.98
1426.6
1310.41
1185.31
1124.35
1063.23
1008.26
978.028
958.411
941.048
926.249
908.194
881.838
839.036
771.504
675.322
552.291
424.327
880.552
1225.12
1607.98
1776.06
1907.76
1871.21
1732.15
1539.3
1388.66
1310.18
1299.61
1331.73
1383.01
1400.91
1321.17
1195.12
1130.01
1064.81
1000.76
961.517
938.307
919.936
904.004
884.006
855.342
811.54
745.756
652.799
535.86
419.296
937.895
1326.62
1898.75
2178.64
2419.33
2335.81
2110.65
1777.38
1510.33
1346.64
1284.34
1294.14
1339.09
1364.83
1319.24
1196.83
1133.5
1069.87
994.729
946.027
917.767
899.104
882.28
860.927
830.474
784.758
719.047
628.617
516.843
409.627
1000.68
1477.33
2386.25
2897.34
3319.23
3153.78
2781.34
2207.24
1733.33
1432.25
1289.46
1262.64
1294.82
1322.67
1299.74
1186.66
1134.9
1074.82
993.96
931.701
898.2
879.121
860.857
838.067
806.219
758.156
688.155
595.434
489.458
393.385
1072.9
1724.39
3202.06
4092.9
4468.76
4221.37
3759.78
2902.84
2107.66
1589.1
1325.09
1241.43
1251.6
1276.04
1265.62
1170.57
1134.7
1077.55
995.074
918.375
877.053
854.966
835.173
809.727
772.31
718.512
648.102
560.65
463.812
379.472
1163.67
2145.09
4430.81
5090.15
5107.22
4797.42
4411.97
3707.33
2615.18
1828.44
1400.12
1235.33
1212.74
1231.12
1226.43
1150.02
1115.3
1079.92
996.108
907.212
852.145
824.103
800.109
770.123
730.87
679.588
614.609
534.564
446.074
370.011
1286.25
2837.17
5543.61
5669.76
5314.35
4863.14
4655.87
4155.34
3115.58
2103.59
1510.91
1246.31
1181.8
1187.85
1183.71
1126.95
1086.71
1089.03
1002.42
896.443
826.488
791.852
766.073
735.687
697.872
648.916
587.297
512.303
430.596
361.637
1457.09
3865.48
6460.82
6091.29
5337.96
4654.18
4520.51
4315.97
3414.43
2340.87
1627
1268.44
1158.02
1147.18
1140.81
1101.73
1055.05
1074.63
1025.82
893.78
805.662
762.843
735.352
705.091
668.21
620.946
562.344
492.036
416.56
353.755
1697.26
5172.86
7292.46
6467.38
5362.27
4468.98
4233.71
4292.66
3481.56
2482.22
1702.15
1287.56
1136.01
1108.03
1100.49
1075.89
1026.84
1050.26
1070.07
909.897
790.22
738.692
707.247
677.319
640.997
595.251
539.503
473.606
403.672
346.458
2017.74
6480.5
8099.49
6862.7
5429.28
4374.72
3988.83
4211.34
3464.39
2519.22
1717.78
1281.35
1110.28
1070.22
1064.69
1053.46
1002.33
1027.62
1071.84
964.435
789.164
718.359
682.665
651.94
616.009
571.698
518.679
456.852
392.024
339.78
2414.5
7738.77
8950.75
7229.31
5521.13
4345.02
3842.12
4080.18
3405.22
2441.09
1673.24
1245.4
1078
1035.13
1035.74
1034.43
984.472
1012.46
1056.22
1062.99
818.517
704.766
661.836
628.555
593.049
550.137
499.746
441.686
381.642
333.695
2877.37
9036.64
9862.48
7572.53
5612.6
4366.61
3747.84
3875.44
3328.48
2311.73
1582.8
1198.36
1046.85
1006.51
1013.53
1016.34
972.751
1005.16
1041.76
1090.87
911.911
708.348
643.809
606.8
571.889
530.362
482.459
427.842
372.22
327.858
3423.32
10446.2
10814.1
7921.95
5752.4
4361.36
3685.68
3624.11
3184.96
2181.18
1492.15
1156.05
1019.92
985.652
1001.15
1004.61
968.143
1002.87
1036.38
1082.17
1061.88
755.76
632.964
588.857
552.054
512.07
466.378
414.742
362.972
321.807
4090.88
11994.1
11789.2
8317.03
5913.75
4400.43
3684.78
3444.94
2947.09
2110.08
1446.47
1125.32
1006.49
980.505
1003.94
999.551
972.396
1004.57
1035.84
1070.57
1098.3
901.728
645.13
573.703
532.967
494.72
451.136
402.054
353.715
315.312
4846.51
13635.8
12768.8
8803.17
6154.49
4531.45
3758.97
3357.74
2777.95
2028.74
1447.58
1122.59
1019.2
995.948
1016.02
1008.04
985.809
1011.42
1038.26
1064.46
1087.8
1057.74
721.532
568.11
517.866
477.214
436.389
389.657
344.722
308.668
5693.55
15482
13811.2
9412.36
6476.09
4767.28
3913.09
3365.58
2731.29
1972.6
1465.93
1192.49
1074.26
1035.82
1040.35
1024.09
1010.12
1025.57
1041.49
1057.04
1070.56
1073.15
910.877
596.985
507.003
462.403
421.343
377.868
336.815
302.567
7074.35
17221.4
14848.8
10217.3
6987.27
5127.33
4172.53
3502.72
2816.22
2022.79
1544
1296.56
1151.77
1084.52
1069.63
1041.41
1043.13
1047.14
1045.78
1047.98
1051.2
1047.61
1011.91
701.847
511.304
451.995
408.185
365.763
329.438
296.897
8235.62
19196.4
16124.6
11340.5
7744.55
5664.38
4562.48
3807.51
3028
2181.55
1660.51
1378.96
1230.44
1133.8
1090.6
1057.02
1055.34
1059.71
1051.01
1038.57
1029.67
1017.9
1002.11
880.524
553.285
447.23
399.165
355.928
320.901
291.105
9555.88
20201.9
17469.5
12864.5
8864.22
6415.19
5093.42
4250.42
3407.61
2461.09
1810.17
1477.46
1311.48
1189.52
1109.91
1074.3
1057.71
1056.28
1050.37
1030.92
1010.68
992.128
970.641
927.987
669.073
456.637
392.847
349.122
313.632
284.41
10459.1
21935.4
19397.9
15045.4
10520
7472.97
5767.01
4790.59
3939.71
2917.52
2064.13
1626.51
1395.12
1246.59
1139.06
1090.11
1058.8
1047.91
1038.95
1022.02
996.272
971.027
941.056
914.813
810.018
504.211
391.733
344.238
309.362
280.693
10680.5
21677.9
22591.3
18410
12908.7
8965.35
6693.63
5439.44
4558.37
3544.21
2490.56
1841.75
1488.49
1308.48
1176.02
1106.83
1062.53
1042.63
1025.97
1008.96
985.043
953.861
920.495
891.687
841.826
624.882
406.815
341.356
306.7
278.309
447.604
620.635
760.23
859.652
925.096
965.269
985.548
998.077
1008
1019.04
1030.66
1045.92
1068.36
1107.16
1153.09
1222.18
1364.34
1455.21
1431.74
1383.73
1327.38
1284.95
1272.08
1291.75
1313.18
1320.39
1273.77
1159.42
921.131
602.667
442.627
605.14
743.156
843.473
909.797
949.942
970.772
984.21
996.006
1009.11
1022.34
1040.33
1071.4
1118.71
1166.93
1254.53
1424.07
1474.68
1438.24
1382.28
1324.22
1284.99
1284.07
1315.24
1345.55
1354.22
1297.87
1193.91
966.194
666.2
437.711
588.51
722.795
822.526
889.065
929.326
951.864
966.543
979.444
994.21
1008.42
1028.29
1068.12
1119.16
1172.32
1274.7
1435.78
1457.47
1418.11
1362.93
1311.21
1286.21
1309.19
1357.64
1402.46
1412.5
1345.32
1251.89
1024.49
718.995
430.961
571.132
700.638
799.095
865.72
906.59
931.036
947.315
961.407
977.818
993.829
1017.35
1067.5
1122.55
1183.56
1304.64
1439.64
1442
1393.98
1341.44
1303.02
1301.49
1353.4
1428.98
1483.73
1497.2
1426.4
1329.49
1085.36
774.694
425.9
554.561
677.838
773.33
839.355
881.162
907.717
925.891
941.143
958.783
977.434
1009.36
1065.77
1127.47
1193.13
1326.33
1423
1410.28
1357.73
1313.97
1298.05
1332.78
1428.58
1552.16
1637.13
1658.35
1566.18
1444.16
1149.16
828.328
420.729
537.847
654.995
747.221
811.836
854.866
883.574
903.79
920.282
938.878
961.722
1002.58
1068.74
1133.8
1204.04
1336.09
1395.4
1372.19
1321.5
1292.2
1312.5
1404.84
1571.5
1780.65
1925.7
1954.28
1806.31
1630.8
1228.05
886.059
410.868
518.688
630.733
720.287
785.195
830.033
860.391
881.9
899.385
918.444
946.862
997.794
1074.57
1137.65
1204.6
1328.34
1358.81
1329.2
1286.2
1282.19
1360.64
1545.88
1842.3
2204.66
2430.4
2505.1
2239.01
1938.36
1336.74
945.039
394.409
491.18
597.527
690.033
758.649
805.551
837.342
860.239
879.018
898.962
933.393
998.456
1079.73
1140.44
1196.49
1302.46
1316.82
1286.24
1257.91
1296.34
1463.78
1801.77
2322.3
2949.22
3320.96
3472.34
3009.15
2453.56
1499.08
1009.07
380.523
465.666
562.778
649.897
719.516
772.464
808.671
834.213
854.701
878.005
921.399
1000.45
1081.99
1136.87
1181.08
1267.9
1272.15
1245.52
1241.71
1345.23
1646.41
2221.59
3097.17
3931.77
4362.61
4604.92
4235.12
3305.9
1765.47
1084.53
370.879
447.801
536.678
616.758
681.217
732.076
770.866
800.357
824.331
853.394
911.093
1001.79
1083.91
1116.22
1160.49
1226.73
1228.5
1209.98
1243.59
1437.28
1914.58
2771.37
3889.87
4537.23
4883.75
5204.86
5191.29
4538.33
2215.58
1179.74
362.264
432.015
514.072
589.199
650.486
699.141
736.691
766.742
792.64
828.742
901.433
1008.29
1089.74
1087.06
1136.29
1183.53
1186.38
1182.77
1263.68
1567.36
2214.52
3285.54
4293.47
4721.33
4909.28
5405.91
5781.45
5632.72
2945.41
1307.13
354.186
417.707
493.471
563.963
622.36
669.402
706.079
736.136
764.035
808.722
900.096
1030.83
1071.09
1054.72
1109.77
1141.09
1147.36
1163.13
1295.07
1696.68
2462.95
3548.62
4406.11
4537.74
4711.18
5447.34
6231.28
6563.02
4005.88
1484.57
346.736
404.604
474.771
540.875
596.524
642.126
678.308
708.064
740.261
794.295
917.344
1068.27
1045.39
1026.32
1082.86
1101.32
1110.06
1145.85
1321.15
1775.64
2610.05
3607.07
4379.08
4269.04
4546.83
5492.82
6649.18
7424.33
5316.95
1731.47
339.942
392.794
457.827
519.862
572.856
617.099
652.937
683.76
720.318
794.611
970.691
1063.52
1021.82
1002.49
1058.91
1065.84
1073.31
1122.39
1317.95
1793.26
2635.11
3597.97
4284.64
4034.13
4462.73
5572.08
7080.33
8288.74
6608.2
2056.65
333.797
382.297
442.501
500.762
551.193
594.111
629.538
663.089
707.285
824.793
1059.52
1046.3
1004.8
983.914
1035.44
1035.69
1038.1
1090.11
1281.34
1746.57
2553.68
3546.4
4126.1
3894.91
4439.64
5667.21
7466.98
9183.16
7867.37
2454.61
327.959
372.824
428.527
483.317
531.314
572.901
607.915
645.256
711.861
917.306
1078.75
1030.52
995.847
970.299
1016.79
1012.27
1009.03
1057.82
1231.21
1647.67
2418.18
3467.72
3906.26
3818.77
4465.23
5765.89
7825.38
10138.8
9181.46
2917.59
321.888
363.48
415.313
467.094
512.886
552.986
590.086
634.846
759.987
1054.31
1067.92
1023.91
992.053
963.264
1005.3
998.847
987.183
1028.39
1183.2
1548.16
2283.16
3295.89
3675.25
3758.25
4475.52
5918.49
8199.95
11140.9
10616.8
3460.62
315.289
353.902
402.451
451.675
495.367
533.901
575.007
647.937
902.81
1083.08
1055.26
1022.31
992.359
965.732
1000.33
998.842
980.829
1012.83
1143.59
1494.78
2196.97
3036.38
3520.44
3763.92
4524.54
6107.48
8629.69
12160.7
12191.9
4124.61
308.476
344.476
389.902
436.766
477.601
518.749
569.876
724.545
1045.86
1071.27
1048.87
1023.79
998.469
978.144
1010.73
1011
991.512
1022.44
1136.68
1489.4
2102.29
2869.09
3444.36
3846.8
4654.02
6360.81
9145.49
13184.9
13865.9
4877.45
302.281
336.331
378.04
421.575
462.971
508
599.559
908.396
1057.47
1054.52
1041.59
1026.57
1013.22
1006.16
1024.1
1037.02
1032.02
1074.74
1201.78
1497.13
2037.51
2824.59
3458.82
4008.68
4894.45
6688.83
9775.88
14260
15752.6
5717.53
296.607
329.111
365.954
408.77
452.638
513.078
705.178
999.575
1032.84
1036.26
1033.27
1031.99
1041.76
1037.24
1040.1
1067.58
1083.5
1154.79
1302.97
1565.31
2077.85
2898.91
3593.57
4271.68
5261.2
7207.51
10589.3
15322
17518.7
7157.36
290.39
320.554
356.34
399.974
448.38
557.138
876.832
988.2
1004.62
1015.95
1025.56
1041.33
1054.67
1049.3
1054.92
1091.44
1135.8
1239.43
1390.33
1685.69
2245.16
3111.58
3893.15
4666.45
5810.15
7982.96
11736.8
16623.3
19491.7
8296.29
283.82
313.552
349.522
393.54
458.919
675.423
917.775
958.097
979.64
998.678
1020.83
1043.19
1047.79
1050.3
1071.86
1109.66
1192.92
1320.88
1496.56
1847.57
2539.49
3501.82
4339.79
5211.06
6582.71
9127.6
13284.2
17970.6
20550.9
9596.07
280.158
308.991
344.344
392.432
508.814
807.229
903.808
930.669
960.907
987.539
1015.58
1030.97
1038.39
1050.98
1087.58
1139.36
1249.85
1402.47
1651.68
2119.99
3013.85
4043.1
4896.73
5906.75
7678.5
10825.8
15484.6
19844.3
22216.7
10478.7
277.774
306.006
341.424
408.93
632.69
834.38
881.7
910.936
944.268
978.137
1002.91
1018.45
1034.06
1056.21
1105.57
1178.28
1312.3
1498.44
1877.37
2570.54
3658.54
4670.11
5563.52
6860.67
9242.8
13312.5
18922.1
22963.3
21906.6
10671.8
1507.08
1488.79
1452.77
1419.15
1384.77
1348.86
1311.61
1273.94
1235.62
1196.68
1158.23
1120.27
1083.06
1046.92
1012.43
979.53
948.435
918.995
891.179
865.464
841.472
819.257
798.705
779.599
762.189
746.267
731.688
718.253
706.342
696.172
687.68
681.152
678.248
683.072
697.927
721.269
750.876
790.297
838.947
896.951
957.69
1014.68
1073.17
1132.81
1192.74
1252.71
1313.06
1375.65
1453.44
1547.91
1622.72
1641.3
1615.84
1570.49
1505.68
1428.11
1325.92
1206.95
1095.82
1011.62
947.727
898.754
860.287
833.362
817.107
805.454
797.619
792.362
788.474
785.985
784.4
783.656
783.666
784.177
784.44
784.055
783.235
782.682
782.262
781.24
779.106
775.512
770.074
763.008
755.316
747.902
741.01
734.394
727.706
720.685
713.075
704.636
695.266
685.112
674.499
663.872
653.674
644.107
635.183
626.931
619.457
613.165
608.962
608.129
609.314
612.469
617.103
622.501
627.772
633.576
641.627
646.321
646.876
637.293
597.542
549.848
499.593
436.84
365.255
310.6
287.203
278.094
275.239
274.914
275.945
1167.11
1167.44
1147.85
1135.71
1120.46
1103.58
1084.61
1066.56
1046.97
1029.03
1013.03
997.261
983.874
972.763
963.071
954.913
948.328
943.577
939.978
939.223
942.616
949.088
962.224
980.031
1005.67
1037.84
1077.13
1123.07
1177.28
1241.42
1317.78
1418.23
1556.93
1711.42
1881.4
2058.5
2246.84
2436.06
2625.94
2808.58
2983.51
3138.69
3271.85
3385.89
3485.2
3567.93
3626.38
3669.13
3699.64
3705.66
3668.57
3616.49
3545.46
3435.94
3311.67
3165.74
2957.74
2709.86
2417.52
2161.97
1949.82
1772.7
1636.12
1519.43
1423.57
1348.46
1289.98
1244.46
1209.38
1183.67
1164.87
1150.84
1141.02
1134.2
1127.66
1120.41
1112.93
1104.82
1094.81
1082.24
1067.43
1051.5
1035.2
1018.59
1001.38
983.483
965.089
946.576
928.305
910.48
893.139
876.246
860.029
845.099
832.143
821.199
812.543
807.119
804.658
803.798
804.572
806.822
810.334
815.261
820.732
826.468
831.046
831.143
822.407
802.364
772.62
737.746
699.791
662.829
631.432
608.193
591.908
581.604
565.608
520.644
417.836
343.765
312.921
304.623
304.08
1190.34
1204.2
1196.42
1198.98
1198.73
1198.59
1195.69
1194.13
1189.12
1183.62
1180.99
1178.9
1179.93
1184.94
1192.64
1208.67
1226.2
1256.18
1288.14
1330.28
1384.91
1448.53
1532.63
1631.88
1757.95
1909.39
2085.83
2279.64
2480.32
2713.04
2990.48
3297.01
3629.95
3948.89
4251.48
4527.08
4781.35
5016.65
5230.67
5417.18
5583.09
5731.35
5849.39
5940.62
6007.29
6051.72
6084.94
6112.21
6068.31
5924.08
5767.9
5568.37
5342.32
5106.79
4928.57
4773.43
4499.61
4153.26
3779.29
3395.69
3048.94
2744.4
2487.84
2266.89
2079.37
1926.49
1797.43
1693.31
1617.03
1560.91
1519.09
1485.93
1460.48
1442.74
1426.75
1409.77
1390.5
1367.69
1341.8
1314.74
1288.23
1262.86
1239.38
1216.79
1193.28
1168.33
1142.62
1117.16
1092.83
1070.47
1051.03
1034.85
1021.6
1011.2
1003.41
997.879
993.643
989.401
985.671
984.197
984.656
985.314
983.834
976.147
959.358
932.272
894.727
849.37
802.64
759.004
720.065
688.248
663.735
645.774
631.557
622.821
617.381
617.844
622.293
623.329
609.911
560.998
443.509
371.51
345.702
1276.27
1309.87
1317
1338.25
1355.86
1376.68
1394.37
1415.7
1436.88
1463.15
1496.47
1530.7
1575.95
1629.69
1694.2
1778.03
1868.58
1991.35
2117.54
2264.26
2431.08
2609.32
2813.75
3031.21
3265.2
3515.01
3790.54
4090.41
4416.32
4692.23
4931.63
5127.8
5316.02
5494.78
5660.8
5808.45
5936.57
6046.04
6144.06
6232.99
6316.84
6404.32
6489.71
6573.89
6652.59
6719.5
6796.09
6887.59
6954.73
6880.94
6744.05
6594.83
6436.93
6270.77
6119.98
5998.25
5774.35
5399.51
4950.28
4460.59
4003.54
3602.25
3253.39
2959.1
2708.08
2496.16
2330.03
2208.19
2131.15
2080.24
2047.28
2025.94
2020.74
2023.17
2011.36
1981.98
1936.77
1879.55
1816.82
1754.05
1695.1
1639.22
1588.48
1537.87
1484.27
1429.41
1375.82
1325.2
1279.06
1238.45
1203.46
1173.83
1149.42
1129.6
1113.41
1099.58
1085.94
1070.08
1049.96
1024.48
993.695
958.251
918.757
877.844
838.152
801.76
770.11
744.014
722.395
705.402
692.579
683.116
676.639
671.294
665.083
657.978
655.319
658.874
665.888
673.2
681.409
687.783
674.28
597.776
469.195
1439.02
1511.36
1552.2
1615.65
1678.13
1751.11
1826.17
1910.13
1995.59
2100.64
2230.76
2372.48
2540.72
2716.06
2904.53
3099.74
3292.9
3510.11
3715.68
3927.89
4128.73
4313.18
4491.56
4668.16
4825.56
4954.46
5074.13
5170.78
5261.58
5334.71
5382.96
5428.42
5463.61
5493.23
5520.01
5564.32
5615.39
5693.82
5798.59
5931.83
6090.16
6277.5
6482.79
6697.35
6908.77
7102.41
7281.25
7413.82
7460.02
7363.51
7152.72
6917.55
6699.7
6508.16
6352.17
6247.89
6174.06
6058.47
5822.08
5386.04
4888.98
4428.88
4006.6
3622.4
3287.6
3005.37
2788.07
2658.93
2619.9
2652.96
2742.23
2861.36
2986.5
3092.77
3147.21
3139.18
3066.21
2942.49
2802.01
2650.2
2494.16
2340.55
2194.42
2057.18
1928.78
1808.54
1696.22
1592.89
1499.92
1417.97
1347.01
1285.55
1231.84
1183.81
1139.61
1097.49
1056.44
1015.64
974.813
934.584
895.39
859.256
827.281
799.92
777.393
759.301
744.698
733.269
724.038
716.504
711.345
707.119
704.746
701.654
700.281
700.971
702.044
704.747
711.155
719.2
728.643
740.768
755.069
762.458
739.741
1790.31
1964.97
2099.69
2271.09
2441.92
2630.37
2841.99
3067.81
3310.03
3546.88
3784.59
4036.58
4311.11
4554
4791.23
4978.8
5118.86
5224.54
5288.52
5328.43
5359.29
5367.38
5353.27
5335.13
5322.95
5300.3
5271.45
5242.79
5218.08
5199.75
5191.81
5204.69
5237.75
5307.86
5421.47
5603.94
5866.9
6219.06
6669.34
7209.07
7810.8
8455.47
9131.06
9774.53
10344.8
10832.7
11171.6
11328.4
11159
10684
10024
9307.09
8629.36
8030.52
7524.7
7108.09
6767.57
6469.09
6220.06
5958.14
5524.34
5095.46
4695.32
4314.41
3958.4
3653.47
3436
3348.72
3408.87
3599.31
3890.8
4246.82
4611.58
4917.21
5103.22
5150.26
5066.58
4861.23
4570.12
4240.88
3890.63
3540
3203.43
2888.17
2600.45
2342.1
2112.85
1912.41
1738.78
1590.53
1463.76
1355.03
1261.06
1181.18
1112.84
1054.16
1003.3
959.008
920.929
888.612
861.68
837.822
817.225
799.759
785.112
772.88
763.096
755.203
749.162
744.092
740.091
737.833
734.612
734.575
738.044
742.819
747.258
750.958
756.232
763.218
771.483
781.868
795.117
811.283
826.508
2668.96
3127.96
3513.39
3994.58
4426.37
4863.51
5248.92
5600.14
5897.01
6127.28
6252.88
6328.26
6366.47
6353.5
6326.61
6254.25
6177.67
6090
5976.55
5852.39
5740.02
5640.78
5547.44
5460.11
5386.51
5324.46
5274.62
5249.65
5252.61
5290.93
5380.42
5551.54
5841.99
6293.48
6945.53
7827.29
8937.69
10271.7
11795.8
13456.1
15164.1
16841.2
18422.4
19817.3
20949.5
21749.9
22123.8
21953.1
21174.6
19738.3
17948
16090.1
14305.5
12683.3
11257.6
10039.4
9018.76
8158.17
7441.53
6843.2
6311.44
5823.54
5421.47
5076.66
4812.96
4665.55
4668.17
4862.79
5259.59
5809.34
6455.89
7133.33
7744.13
8207.33
8470.48
8510.5
8337.97
7978.49
7450.91
6833.36
6181.44
5535.46
4923.49
4356.22
3834.42
3361.9
2941.86
2575.88
2262.79
2001.8
1784.61
1602.57
1450.72
1326.95
1226.68
1144.82
1077.55
1021.94
975.893
937.937
906.579
879.906
856.643
836.91
820.459
806.891
796.19
787.961
781.978
777.149
772.889
769.988
769.868
771.747
775.583
780.76
786.879
793.883
801.417
809.164
815.692
823.677
834.858
848.048
862.485
4857.37
5975.49
6708.19
7637.14
8162.35
8649.17
8812.01
8894.26
8831.81
8695.75
8464.27
8206.69
7929.48
7634.67
7358.62
7103.73
6863.97
6656.81
6469.92
6302.04
6157.67
6038
5936.63
5856.42
5807.04
5786.97
5828.61
5955.71
6201.18
6634.38
7337.84
8397.52
9892.65
11885.3
14388.9
17352.1
20672.5
24215.4
27842.4
31455.2
34853.5
37876.3
40410.2
42347.1
43607.5
44100.2
43770.3
42505.1
40239.8
37119.4
33544.9
29908
26356.9
22989.9
19894
17158.9
14810.5
12847.2
11248
9963.69
8966.5
8234.37
7729.17
7424.26
7405.2
7756.52
8414.76
9314.42
10399.9