/*--------------------------------*- C++ -*----------------------------------*\
| =========                 |                                                 |
| \\      /  F ield         | OpenFOAM: The Open Source CFD Toolbox           |
|  \\    /   O peration     | Version:  2112                                  |
|   \\  /    A nd           | Website:  www.openfoam.com                      |
|    \\/     M anipulation  |                                                 |
\*---------------------------------------------------------------------------*/
FoamFile
{
    version     2.0;
    format      ascii;
    arch        "LSB;label=32;scalar=64";
    class       volScalarField;
    location    "4e-05";
    object      alphat;
}
// * * * * * * * * * * * * * * * * * * * * * * * * * * * * * * * * * * * * * //

dimensions      [1 -1 -1 0 0 0 0];

internalField   nonuniform List<scalar> 
13875
(
1.2655
17.0797
21.5743
23.9933
25.0113
25.3952
25.5223
25.5599
25.57
25.5726
25.5731
25.5731
25.5729
25.5727
25.5724
25.5717
25.569
25.5589
25.5215
25.3948
25.0115
23.9935
21.5748
17.071
1.26865
1.00741
10.8567
13.3635
14.5677
15.0477
15.2193
15.2721
15.2868
15.2904
15.2912
15.2913
15.2913
15.2912
15.291
15.2909
15.2905
15.2895
15.2856
15.2708
15.2181
15.0475
14.5694
13.3703
10.87
1.02138
0.869204
10.055
12.4787
13.3738
13.6882
13.7845
13.8111
13.8175
13.8186
13.8185
13.8182
13.818
13.8178
13.8177
13.8176
13.8175
13.8173
13.8159
13.8095
13.783
13.687
13.3729
12.4824
10.0415
0.865127
0.620525
7.23019
8.64879
9.05767
9.17697
9.209
9.2168
9.21848
9.21873
9.21866
9.21851
9.21833
9.21819
9.21815
9.21809
9.21798
9.21781
9.21736
9.21553
9.20765
9.17554
9.05628
8.64892
7.21769
0.617349
0.33254
3.05904
3.54716
3.65676
3.68215
3.68796
3.68922
3.68948
3.68951
3.68953
3.68949
3.68941
3.68934
3.6893
3.68925
3.68918
3.68909
3.68896
3.68863
3.68727
3.68133
3.65589
3.54633
3.05572
0.331213
0.0946817
0.320349
0.363186
0.370191
0.371579
0.371871
0.371932
0.371945
0.37195
0.371951
0.371944
0.371932
0.371921
0.371912
0.371901
0.371888
0.371873
0.371857
0.371836
0.371768
0.371459
0.370059
0.363162
0.319973
0.0944035
0.0496712
0.225016
0.231795
0.229058
0.228279
0.228069
0.22802
0.22801
0.228008
0.228008
0.228011
0.228015
0.228019
0.228021
0.228023
0.228027
0.228031
0.228037
0.22805
0.228101
0.228313
0.229094
0.231787
0.224744
0.049619
0.0489847
0.27221
0.302065
0.302764
0.302772
0.302772
0.302772
0.302772
0.302772
0.302772
0.302772
0.302772
0.302772
0.302772
0.302772
0.302772
0.302772
0.302772
0.302772
0.302772
0.302772
0.302764
0.302064
0.272167
0.0490063
0.0491596
0.270395
0.302132
0.302918
0.30293
0.30293
0.30293
0.30293
0.30293
0.30293
0.30293
0.30293
0.30293
0.30293
0.30293
0.30293
0.30293
0.30293
0.30293
0.30293
0.30293
0.302918
0.302146
0.270705
0.0491755
0.0457427
0.262651
0.30164
0.302906
0.302929
0.302929
0.302929
0.302929
0.302929
0.302929
0.302929
0.302929
0.302929
0.302929
0.302929
0.302929
0.302929
0.302929
0.302929
0.302929
0.302929
0.302906
0.301648
0.262797
0.0459093
0.0403727
0.252438
0.300759
0.302879
0.302929
0.302929
0.302929
0.302929
0.302929
0.302929
0.302929
0.302929
0.302929
0.302929
0.302929
0.302929
0.302929
0.302929
0.302929
0.302929
0.302929
0.302875
0.300628
0.250954
0.0398667
0.0365538
0.243028
0.299802
0.302844
0.302929
0.302929
0.302929
0.302929
0.302929
0.302929
0.302929
0.302929
0.302929
0.302929
0.302929
0.302929
0.302929
0.302929
0.302929
0.302929
0.302929
0.302846
0.29983
0.243265
0.036482
0.0336588
0.233949
0.298756
0.3028
0.302928
0.302929
0.302929
0.302929
0.302929
0.302929
0.302929
0.302929
0.302929
0.302929
0.302929
0.302929
0.302929
0.302929
0.302929
0.302929
0.302929
0.302808
0.29893
0.235366
0.0338122
0.0315697
0.226722
0.297846
0.302755
0.302928
0.30293
0.302929
0.302929
0.302929
0.302929
0.302929
0.302929
0.302929
0.302929
0.302929
0.302929
0.302929
0.302929
0.302929
0.302929
0.302928
0.302772
0.298215
0.229214
0.0323555
0.0304893
0.220984
0.297117
0.302713
0.302926
0.30293
0.302929
0.302929
0.302929
0.302929
0.302929
0.302929
0.302929
0.302929
0.302929
0.302929
0.302929
0.302929
0.302929
0.30293
0.302926
0.30268
0.296528
0.21753
0.0299849
0.0280282
0.210082
0.295272
0.3026
0.302923
0.30293
0.302929
0.302929
0.302929
0.302929
0.302929
0.302929
0.302929
0.302929
0.302929
0.302929
0.302929
0.302929
0.302929
0.30293
0.302922
0.302573
0.294838
0.208007
0.0275299
0.0277802
0.210291
0.295615
0.302615
0.302922
0.302929
0.302929
0.302929
0.302929
0.302929
0.302929
0.302929
0.302929
0.302929
0.302929
0.302929
0.302929
0.302929
0.302929
0.302929
0.302922
0.302627
0.295819
0.211406
0.0278323
0.0277262
0.212239
0.296059
0.30263
0.30292
0.302929
0.302929
0.302929
0.302929
0.302929
0.302929
0.302929
0.302929
0.302929
0.302929
0.302929
0.302929
0.302929
0.302929
0.302929
0.30292
0.302626
0.296022
0.212015
0.0277539
0.0264061
0.198372
0.293069
0.302407
0.302906
0.302928
0.302929
0.302929
0.302929
0.302929
0.302929
0.302929
0.302929
0.302929
0.302929
0.302929
0.302929
0.302929
0.302929
0.302928
0.30291
0.302473
0.293884
0.201779
0.0268627
0.0257046
0.187987
0.289947
0.302131
0.302888
0.302927
0.302929
0.302929
0.302929
0.302929
0.302929
0.302929
0.302929
0.302929
0.302929
0.302929
0.302929
0.302929
0.302929
0.302927
0.302887
0.302107
0.289666
0.186949
0.0254015
0.0286032
0.200637
0.293013
0.302384
0.302903
0.302928
0.302929
0.302929
0.302929
0.302929
0.302929
0.302929
0.302929
0.302929
0.302929
0.302929
0.302929
0.302929
0.302929
0.302928
0.302899
0.302315
0.292178
0.197223
0.0280505
0.0317033
0.215098
0.29601
0.302608
0.302916
0.302929
0.302929
0.302929
0.302929
0.302929
0.302929
0.302929
0.302929
0.302929
0.302929
0.302929
0.302929
0.302929
0.302929
0.302928
0.302915
0.302588
0.295765
0.213954
0.0316167
0.0348403
0.227959
0.298114
0.30274
0.302922
0.302929
0.302929
0.302929
0.302929
0.302929
0.302929
0.302929
0.302929
0.302929
0.302929
0.302929
0.302929
0.302929
0.302929
0.302929
0.302923
0.302752
0.298338
0.229613
0.0351972
0.0379846
0.240081
0.299663
0.302822
0.302926
0.302929
0.302929
0.302929
0.302929
0.302929
0.302929
0.302929
0.302929
0.302929
0.302929
0.302929
0.302929
0.302929
0.302929
0.302929
0.302926
0.302822
0.299648
0.239891
0.0378723
0.0399807
0.246436
0.30032
0.302853
0.302927
0.302929
0.302929
0.302929
0.302929
0.302929
0.302929
0.302929
0.302929
0.302929
0.302929
0.302929
0.302929
0.302929
0.302929
0.302929
0.302927
0.302851
0.300271
0.245941
0.0399087
0.0422288
0.252181
0.300833
0.302873
0.302928
0.302929
0.302929
0.302929
0.302929
0.302929
0.302929
0.302929
0.302929
0.302929
0.302929
0.302929
0.302929
0.302929
0.302929
0.302929
0.302928
0.302876
0.300913
0.253128
0.04246
0.0446355
0.258399
0.301316
0.302891
0.302928
0.302929
0.302929
0.302929
0.302929
0.302929
0.302929
0.302929
0.302929
0.302929
0.302929
0.302929
0.302929
0.302929
0.302929
0.302929
0.302928
0.302888
0.301242
0.257381
0.0443002
0.0464063
0.2621
0.301569
0.302899
0.302928
0.302929
0.302929
0.302929
0.302929
0.302929
0.302929
0.302929
0.302929
0.302929
0.302929
0.302929
0.302929
0.302929
0.302929
0.302929
0.302928
0.302899
0.301562
0.262032
0.0465105
0.0483749
0.265485
0.301779
0.302906
0.302929
0.302929
0.302929
0.302929
0.302929
0.302929
0.302929
0.302929
0.302929
0.302929
0.302929
0.302929
0.302929
0.302929
0.302929
0.302929
0.302929
0.302908
0.301858
0.266801
0.0487395
0.0507739
0.270371
0.302054
0.302913
0.302929
0.302929
0.302929
0.302929
0.302929
0.302929
0.302929
0.302929
0.302929
0.302929
0.302929
0.302929
0.302929
0.302929
0.302929
0.302929
0.302929
0.302912
0.301991
0.269185
0.0503004
0.0522106
0.27273
0.302173
0.302916
0.302929
0.302929
0.302929
0.302929
0.302929
0.302929
0.302929
0.302929
0.302929
0.302929
0.302929
0.302929
0.302929
0.302929
0.302929
0.302929
0.302929
0.302916
0.302178
0.272838
0.0523889
0.0536691
0.27444
0.302251
0.302918
0.302929
0.302929
0.302929
0.302929
0.302929
0.302929
0.302929
0.302929
0.302929
0.302929
0.302929
0.302929
0.302929
0.302929
0.302929
0.302929
0.302929
0.302919
0.302287
0.27523
0.0538971
0.0555581
0.277477
0.302383
0.302921
0.302929
0.302929
0.302929
0.302929
0.302929
0.302929
0.302929
0.302929
0.302929
0.302929
0.302929
0.302929
0.302929
0.302929
0.302929
0.302929
0.302929
0.30292
0.302355
0.276806
0.0552743
0.0567031
0.278961
0.302441
0.302922
0.302929
0.302929
0.302929
0.302929
0.302929
0.302929
0.302929
0.302929
0.302929
0.302929
0.302929
0.302929
0.302929
0.302929
0.302929
0.302929
0.302929
0.302922
0.302449
0.279154
0.0568723
0.0578214
0.279899
0.302475
0.302923
0.302929
0.302929
0.302929
0.302929
0.302929
0.302929
0.302929
0.302929
0.302929
0.302929
0.302929
0.302929
0.302929
0.302929
0.302929
0.302929
0.302929
0.302923
0.302496
0.280449
0.0579628
0.0593192
0.281956
0.30255
0.302924
0.302929
0.302929
0.302929
0.302929
0.302929
0.302929
0.302929
0.302929
0.302929
0.302929
0.302929
0.302929
0.302929
0.302929
0.302929
0.302929
0.302929
0.302924
0.302527
0.281326
0.0590536
0.0602366
0.282942
0.302582
0.302925
0.302929
0.302929
0.302929
0.302929
0.302929
0.302929
0.302929
0.302929
0.302929
0.302929
0.302929
0.302929
0.302929
0.302929
0.302929
0.302929
0.302929
0.302925
0.302586
0.283057
0.0603662
0.0611164
0.283513
0.3026
0.302925
0.302929
0.302929
0.302929
0.302929
0.302929
0.302929
0.302929
0.302929
0.302929
0.302929
0.302929
0.302929
0.302929
0.302929
0.302929
0.302929
0.302929
0.302926
0.302614
0.283964
0.0612275
0.0622693
0.284971
0.302645
0.302926
0.302929
0.302929
0.302929
0.302929
0.302929
0.302929
0.302929
0.302929
0.302929
0.302929
0.302929
0.302929
0.302929
0.302929
0.302929
0.302929
0.302929
0.302926
0.302629
0.284439
0.0620537
0.0629746
0.285641
0.302664
0.302926
0.302929
0.302929
0.302929
0.302929
0.302929
0.302929
0.302929
0.302929
0.302929
0.302929
0.302929
0.302929
0.302929
0.302929
0.302929
0.302929
0.302929
0.302926
0.302667
0.285719
0.0630729
0.0636348
0.285969
0.302673
0.302926
0.302929
0.302929
0.302929
0.302929
0.302929
0.302929
0.302929
0.302929
0.302929
0.302929
0.302929
0.302929
0.302929
0.302929
0.302929
0.302929
0.302929
0.302927
0.302684
0.286362
0.0637247
0.0644856
0.287031
0.302703
0.302927
0.302929
0.302929
0.302929
0.302929
0.302929
0.302929
0.302929
0.302929
0.302929
0.302929
0.302929
0.302929
0.302929
0.302929
0.302929
0.302929
0.302929
0.302927
0.302691
0.286606
0.064329
0.0649981
0.287493
0.302715
0.302927
0.302929
0.302929
0.302929
0.302929
0.302929
0.302929
0.302929
0.302929
0.302929
0.302929
0.302929
0.302929
0.302929
0.302929
0.302929
0.302929
0.302929
0.302927
0.302716
0.28753
0.0650613
0.0654636
0.28766
0.302719
0.302927
0.302929
0.302929
0.302929
0.302929
0.302929
0.302929
0.302929
0.302929
0.302929
0.302929
0.302929
0.302929
0.302929
0.302929
0.302929
0.302929
0.302929
0.302927
0.302727
0.287993
0.0655305
0.0660463
0.288436
0.302739
0.302927
0.302929
0.302929
0.302929
0.302929
0.302929
0.302929
0.302929
0.302929
0.302929
0.302929
0.302929
0.302929
0.302929
0.302929
0.302929
0.302929
0.302929
0.302927
0.302731
0.288124
0.0659493
0.0663865
0.288751
0.302746
0.302928
0.302929
0.302929
0.302929
0.302929
0.302929
0.302929
0.302929
0.302929
0.302929
0.302929
0.302929
0.302929
0.302929
0.302929
0.302929
0.302929
0.302929
0.302928
0.302746
0.288745
0.066418
0.0666839
0.288811
0.302747
0.302928
0.302929
0.302929
0.302929
0.302929
0.302929
0.302929
0.302929
0.302929
0.302929
0.302929
0.302929
0.302929
0.302929
0.302929
0.302929
0.302929
0.302929
0.302928
0.302754
0.289085
0.0667282
0.0670373
0.289371
0.302761
0.302928
0.302929
0.302929
0.302929
0.302929
0.302929
0.302929
0.302929
0.302929
0.302929
0.302929
0.302929
0.302929
0.302929
0.302929
0.302929
0.302929
0.302929
0.302928
0.302756
0.289157
0.066983
0.067232
0.28958
0.302765
0.302928
0.302929
0.302929
0.302929
0.302929
0.302929
0.302929
0.302929
0.302929
0.302929
0.302929
0.302929
0.302929
0.302929
0.302929
0.302929
0.302929
0.302929
0.302928
0.302764
0.28951
0.0672337
0.0674035
0.289657
0.302766
0.302928
0.302929
0.302929
0.302929
0.302929
0.302929
0.302929
0.302929
0.302929
0.302929
0.302929
0.302929
0.302929
0.302929
0.302929
0.302929
0.302929
0.302929
0.302928
0.302768
0.289757
0.0674173
0.138413
0.300317
0.302949
0.302963
0.302962
0.302962
0.302961
0.30296
0.30296
0.302959
0.302959
0.302958
0.302958
0.302957
0.302957
0.302956
0.302956
0.302955
0.302955
0.302955
0.302954
0.302954
0.302953
0.302953
0.302953
0.302952
0.302952
0.30295
0.302074
0.1565
0.130899
0.301325
0.302921
0.30293
0.30293
0.30293
0.30293
0.30293
0.30293
0.30293
0.30293
0.30293
0.30293
0.30293
0.30293
0.30293
0.30293
0.30293
0.30293
0.30293
0.30293
0.30293
0.30293
0.30293
0.30293
0.30293
0.302929
0.302927
0.301969
0.15488
0.136924
0.301759
0.302924
0.302929
0.302929
0.302929
0.302929
0.302929
0.302929
0.302929
0.302929
0.302929
0.302929
0.302929
0.302929
0.302929
0.302929
0.302929
0.302929
0.302929
0.302929
0.302929
0.302929
0.302929
0.302929
0.302929
0.302929
0.302927
0.301938
0.153398
0.140355
0.301733
0.302924
0.302929
0.302929
0.302929
0.302929
0.302929
0.302929
0.302929
0.302929
0.302929
0.302929
0.302929
0.302929
0.302929
0.302929
0.302929
0.302929
0.302929
0.302929
0.302929
0.302929
0.302929
0.302929
0.302929
0.302929
0.302927
0.301914
0.152141
0.140158
0.301656
0.302924
0.302929
0.302929
0.302929
0.302929
0.302929
0.302929
0.302929
0.302929
0.302929
0.302929
0.302929
0.302929
0.302929
0.302929
0.302929
0.302929
0.302929
0.302929
0.302929
0.302929
0.302929
0.302929
0.302929
0.302929
0.302927
0.301888
0.150999
0.139844
0.301646
0.302924
0.302929
0.302929
0.302929
0.302929
0.302929
0.302929
0.302929
0.302929
0.302929
0.302929
0.302929
0.302929
0.302929
0.302929
0.302929
0.302929
0.302929
0.302929
0.302929
0.302929
0.302929
0.302929
0.302929
0.302929
0.302927
0.301862
0.149907
0.139856
0.301656
0.302924
0.302929
0.302929
0.302929
0.302929
0.302929
0.302929
0.302929
0.302929
0.302929
0.302929
0.302929
0.302929
0.302929
0.302929
0.302929
0.302929
0.302929
0.302929
0.302929
0.302929
0.302929
0.302929
0.302929
0.302929
0.302927
0.301836
0.148874
0.140235
0.301671
0.302925
0.302929
0.302929
0.302929
0.302929
0.302929
0.302929
0.302929
0.302929
0.302929
0.302929
0.302929
0.302929
0.302929
0.302929
0.302929
0.302929
0.302929
0.302929
0.302929
0.302929
0.302929
0.302929
0.302929
0.302929
0.302927
0.301813
0.147918
0.140619
0.301676
0.302925
0.302929
0.302929
0.302929
0.302929
0.302929
0.302929
0.302929
0.302929
0.302929
0.302929
0.302929
0.302929
0.302929
0.302929
0.302929
0.302929
0.302929
0.302929
0.302929
0.302929
0.302929
0.302929
0.302929
0.302929
0.302926
0.301791
0.147049
0.14086
0.301674
0.302925
0.302929
0.302929
0.302929
0.302929
0.302929
0.302929
0.302929
0.302929
0.302929
0.302929
0.302929
0.302929
0.302929
0.302929
0.302929
0.302929
0.302929
0.302929
0.302929
0.302929
0.302929
0.302929
0.302929
0.302929
0.302926
0.301772
0.146263
0.140939
0.301668
0.302925
0.302929
0.302929
0.302929
0.302929
0.302929
0.302929
0.302929
0.302929
0.302929
0.302929
0.302929
0.302929
0.302929
0.302929
0.302929
0.302929
0.302929
0.302929
0.302929
0.302929
0.302929
0.302929
0.302929
0.302929
0.302926
0.301753
0.145551
0.140916
0.301662
0.302925
0.302929
0.302929
0.302929
0.302929
0.302929
0.302929
0.302929
0.302929
0.302929
0.302929
0.302929
0.302929
0.302929
0.302929
0.302929
0.302929
0.302929
0.302929
0.302929
0.302929
0.302929
0.302929
0.302929
0.302929
0.302926
0.301736
0.144902
0.140868
0.301656
0.302925
0.302929
0.302929
0.302929
0.302929
0.302929
0.302929
0.302929
0.302929
0.302929
0.302929
0.302929
0.302929
0.302929
0.302929
0.302929
0.302929
0.302929
0.302929
0.302929
0.302929
0.302929
0.302929
0.302929
0.302929
0.302926
0.301721
0.144311
0.140777
0.301652
0.302925
0.302929
0.302929
0.302929
0.302929
0.302929
0.302929
0.302929
0.302929
0.302929
0.302929
0.302929
0.302929
0.302929
0.302929
0.302929
0.302929
0.302929
0.302929
0.302929
0.302929
0.302929
0.302929
0.302929
0.302929
0.302926
0.301706
0.143772
0.140774
0.30165
0.302926
0.302929
0.302929
0.302929
0.302929
0.302929
0.302929
0.302929
0.302929
0.302929
0.302929
0.302929
0.302929
0.302929
0.302929
0.302929
0.302929
0.302929
0.302929
0.302929
0.302929
0.302929
0.302929
0.302929
0.302929
0.302926
0.301693
0.143286
0.140692
0.301644
0.302926
0.302929
0.302929
0.302929
0.302929
0.302929
0.302929
0.302929
0.302929
0.302929
0.302929
0.302929
0.302929
0.302929
0.302929
0.302929
0.302929
0.302929
0.302929
0.302929
0.302929
0.302929
0.302929
0.302929
0.302929
0.302926
0.301681
0.14285
0.140648
0.301642
0.302926
0.302929
0.302929
0.302929
0.302929
0.302929
0.302929
0.302929
0.302929
0.302929
0.302929
0.302929
0.302929
0.302929
0.302929
0.302929
0.302929
0.302929
0.302929
0.302929
0.302929
0.302929
0.302929
0.302929
0.302929
0.302926
0.30167
0.142461
0.140635
0.301639
0.302926
0.302929
0.302929
0.302929
0.302929
0.302929
0.302929
0.302929
0.302929
0.302929
0.302929
0.302929
0.302929
0.302929
0.302929
0.302929
0.302929
0.302929
0.302929
0.302929
0.302929
0.302929
0.302929
0.302929
0.302929
0.302926
0.301661
0.142118
0.140589
0.301636
0.302926
0.302929
0.302929
0.302929
0.302929
0.302929
0.302929
0.302929
0.302929
0.302929
0.302929
0.302929
0.302929
0.302929
0.302929
0.302929
0.302929
0.302929
0.302929
0.302929
0.302929
0.302929
0.302929
0.302929
0.302929
0.302926
0.301652
0.141818
0.140587
0.301635
0.302926
0.302929
0.302929
0.302929
0.302929
0.302929
0.302929
0.302929
0.302929
0.302929
0.302929
0.302929
0.302929
0.302929
0.302929
0.302929
0.302929
0.302929
0.302929
0.302929
0.302929
0.302929
0.302929
0.302929
0.302929
0.302926
0.301645
0.14156
0.140593
0.301633
0.302926
0.302929
0.302929
0.302929
0.302929
0.302929
0.302929
0.302929
0.302929
0.302929
0.302929
0.302929
0.302929
0.302929
0.302929
0.302929
0.302929
0.302929
0.302929
0.302929
0.302929
0.302929
0.302929
0.302929
0.302929
0.302926
0.30164
0.141341
0.140592
0.301632
0.302926
0.302929
0.302929
0.302929
0.302929
0.302929
0.302929
0.302929
0.302929
0.302929
0.302929
0.302929
0.302929
0.302929
0.302929
0.302929
0.302929
0.302929
0.302929
0.302929
0.302929
0.302929
0.302929
0.302929
0.302929
0.302926
0.301635
0.141159
0.140637
0.301633
0.302926
0.302929
0.302929
0.302929
0.302929
0.302929
0.302929
0.302929
0.302929
0.302929
0.302929
0.302929
0.302929
0.302929
0.302929
0.302929
0.302929
0.302929
0.302929
0.302929
0.302929
0.302929
0.302929
0.302929
0.302929
0.302926
0.301631
0.141013
0.140677
0.301633
0.302926
0.302929
0.302929
0.302929
0.302929
0.302929
0.302929
0.302929
0.302929
0.302929
0.302929
0.302929
0.302929
0.302929
0.302929
0.302929
0.302929
0.302929
0.302929
0.302929
0.302929
0.302929
0.302929
0.302929
0.302929
0.302926
0.301628
0.1409
0.140724
0.301746
0.302926
0.302929
0.302929
0.302929
0.302929
0.302929
0.302929
0.302929
0.302929
0.302929
0.302929
0.302929
0.302929
0.302929
0.302929
0.302929
0.302929
0.302929
0.302929
0.302929
0.302929
0.302929
0.302929
0.302929
0.302929
0.302926
0.301627
0.140816
0.156499
0.302074
0.30295
0.302952
0.302952
0.302953
0.302953
0.302953
0.302954
0.302954
0.302955
0.302955
0.302955
0.302956
0.302956
0.302957
0.302957
0.302958
0.302958
0.302959
0.302959
0.30296
0.30296
0.302961
0.302962
0.302962
0.302963
0.302949
0.300314
0.138376
0.154879
0.301969
0.302927
0.302929
0.30293
0.30293
0.30293
0.30293
0.30293
0.30293
0.30293
0.30293
0.30293
0.30293
0.30293
0.30293
0.30293
0.30293
0.30293
0.30293
0.30293
0.30293
0.30293
0.30293
0.30293
0.30293
0.30293
0.302921
0.301325
0.130916
0.153396
0.301938
0.302927
0.302929
0.302929
0.302929
0.302929
0.302929
0.302929
0.302929
0.302929
0.302929
0.302929
0.302929
0.302929
0.302929
0.302929
0.302929
0.302929
0.302929
0.302929
0.302929
0.302929
0.302929
0.302929
0.302929
0.302929
0.302924
0.301759
0.136893
0.152141
0.301914
0.302927
0.302929
0.302929
0.302929
0.302929
0.302929
0.302929
0.302929
0.302929
0.302929
0.302929
0.302929
0.302929
0.302929
0.302929
0.302929
0.302929
0.302929
0.302929
0.302929
0.302929
0.302929
0.302929
0.302929
0.302929
0.302924
0.301735
0.140401
0.151
0.301888
0.302927
0.302929
0.302929
0.302929
0.302929
0.302929
0.302929
0.302929
0.302929
0.302929
0.302929
0.302929
0.302929
0.302929
0.302929
0.302929
0.302929
0.302929
0.302929
0.302929
0.302929
0.302929
0.302929
0.302929
0.302929
0.302924
0.301654
0.140176
0.149906
0.301862
0.302927
0.302929
0.302929
0.302929
0.302929
0.302929
0.302929
0.302929
0.302929
0.302929
0.302929
0.302929
0.302929
0.302929
0.302929
0.302929
0.302929
0.302929
0.302929
0.302929
0.302929
0.302929
0.302929
0.302929
0.302929
0.302924
0.301645
0.13978
0.148874
0.301837
0.302927
0.302929
0.302929
0.302929
0.302929
0.302929
0.302929
0.302929
0.302929
0.302929
0.302929
0.302929
0.302929
0.302929
0.302929
0.302929
0.302929
0.302929
0.302929
0.302929
0.302929
0.302929
0.302929
0.302929
0.302929
0.302925
0.301658
0.13994
0.147919
0.301813
0.302927
0.302929
0.302929
0.302929
0.302929
0.302929
0.302929
0.302929
0.302929
0.302929
0.302929
0.302929
0.302929
0.302929
0.302929
0.302929
0.302929
0.302929
0.302929
0.302929
0.302929
0.302929
0.302929
0.302929
0.302929
0.302925
0.301668
0.140189
0.147049
0.301791
0.302926
0.302929
0.302929
0.302929
0.302929
0.302929
0.302929
0.302929
0.302929
0.302929
0.302929
0.302929
0.302929
0.302929
0.302929
0.302929
0.302929
0.302929
0.302929
0.302929
0.302929
0.302929
0.302929
0.302929
0.302929
0.302925
0.301677
0.140625
0.146264
0.301772
0.302926
0.302929
0.302929
0.302929
0.302929
0.302929
0.302929
0.302929
0.302929
0.302929
0.302929
0.302929
0.302929
0.302929
0.302929
0.302929
0.302929
0.302929
0.302929
0.302929
0.302929
0.302929
0.302929
0.302929
0.302929
0.302925
0.301673
0.14088
0.145551
0.301753
0.302926
0.302929
0.302929
0.302929
0.302929
0.302929
0.302929
0.302929
0.302929
0.302929
0.302929
0.302929
0.302929
0.302929
0.302929
0.302929
0.302929
0.302929
0.302929
0.302929
0.302929
0.302929
0.302929
0.302929
0.302929
0.302925
0.301667
0.140894
0.144902
0.301736
0.302926
0.302929
0.302929
0.302929
0.302929
0.302929
0.302929
0.302929
0.302929
0.302929
0.302929
0.302929
0.302929
0.302929
0.302929
0.302929
0.302929
0.302929
0.302929
0.302929
0.302929
0.302929
0.302929
0.302929
0.302929
0.302925
0.301664
0.140952
0.144311
0.301721
0.302926
0.302929
0.302929
0.302929
0.302929
0.302929
0.302929
0.302929
0.302929
0.302929
0.302929
0.302929
0.302929
0.302929
0.302929
0.302929
0.302929
0.302929
0.302929
0.302929
0.302929
0.302929
0.302929
0.302929
0.302929
0.302925
0.301655
0.140862
0.143772
0.301706
0.302926
0.302929
0.302929
0.302929
0.302929
0.302929
0.302929
0.302929
0.302929
0.302929
0.302929
0.302929
0.302929
0.302929
0.302929
0.302929
0.302929
0.302929
0.302929
0.302929
0.302929
0.302929
0.302929
0.302929
0.302929
0.302925
0.301652
0.140773
0.143286
0.301693
0.302926
0.302929
0.302929
0.302929
0.302929
0.302929
0.302929
0.302929
0.302929
0.302929
0.302929
0.302929
0.302929
0.302929
0.302929
0.302929
0.302929
0.302929
0.302929
0.302929
0.302929
0.302929
0.302929
0.302929
0.302929
0.302926
0.30165
0.14077
0.14285
0.301681
0.302926
0.302929
0.302929
0.302929
0.302929
0.302929
0.302929
0.302929
0.302929
0.302929
0.302929
0.302929
0.302929
0.302929
0.302929
0.302929
0.302929
0.302929
0.302929
0.302929
0.302929
0.302929
0.302929
0.302929
0.302929
0.302926
0.301644
0.140704
0.142461
0.30167
0.302926
0.302929
0.302929
0.302929
0.302929
0.302929
0.302929
0.302929
0.302929
0.302929
0.302929
0.302929
0.302929
0.302929
0.302929
0.302929
0.302929
0.302929
0.302929
0.302929
0.302929
0.302929
0.302929
0.302929
0.302929
0.302926
0.301641
0.140637
0.142117
0.301661
0.302926
0.302929
0.302929
0.302929
0.302929
0.302929
0.302929
0.302929
0.302929
0.302929
0.302929
0.302929
0.302929
0.302929
0.302929
0.302929
0.302929
0.302929
0.302929
0.302929
0.302929
0.302929
0.302929
0.302929
0.302929
0.302926
0.30164
0.140632
0.141819
0.301652
0.302926
0.302929
0.302929
0.302929
0.302929
0.302929
0.302929
0.302929
0.302929
0.302929
0.302929
0.302929
0.302929
0.302929
0.302929
0.302929
0.302929
0.302929
0.302929
0.302929
0.302929
0.302929
0.302929
0.302929
0.302929
0.302926
0.301636
0.140604
0.14156
0.301645
0.302926
0.302929
0.302929
0.302929
0.302929
0.302929
0.302929
0.302929
0.302929
0.302929
0.302929
0.302929
0.302929
0.302929
0.302929
0.302929
0.302929
0.302929
0.302929
0.302929
0.302929
0.302929
0.302929
0.302929
0.302929
0.302926
0.301634
0.140575
0.141341
0.301639
0.302926
0.302929
0.302929
0.302929
0.302929
0.302929
0.302929
0.302929
0.302929
0.302929
0.302929
0.302929
0.302929
0.302929
0.302929
0.302929
0.302929
0.302929
0.302929
0.302929
0.302929
0.302929
0.302929
0.302929
0.302929
0.302926
0.301634
0.140591
0.14116
0.301635
0.302926
0.302929
0.302929
0.302929
0.302929
0.302929
0.302929
0.302929
0.302929
0.302929
0.302929
0.302929
0.302929
0.302929
0.302929
0.302929
0.302929
0.302929
0.302929
0.302929
0.302929
0.302929
0.302929
0.302929
0.302929
0.302926
0.301632
0.140607
0.141013
0.301631
0.302926
0.302929
0.302929
0.302929
0.302929
0.302929
0.302929
0.302929
0.302929
0.302929
0.302929
0.302929
0.302929
0.302929
0.302929
0.302929
0.302929
0.302929
0.302929
0.302929
0.302929
0.302929
0.302929
0.302929
0.302929
0.302926
0.301632
0.140624
0.140899
0.301628
0.302926
0.302929
0.302929
0.302929
0.302929
0.302929
0.302929
0.302929
0.302929
0.302929
0.302929
0.302929
0.302929
0.302929
0.302929
0.302929
0.302929
0.302929
0.302929
0.302929
0.302929
0.302929
0.302929
0.302929
0.302929
0.302926
0.301633
0.140677
0.140816
0.301627
0.302926
0.302929
0.302929
0.302929
0.302929
0.302929
0.302929
0.302929
0.302929
0.302929
0.302929
0.302929
0.302929
0.302929
0.302929
0.302929
0.302929
0.302929
0.302929
0.302929
0.302929
0.302929
0.302929
0.302929
0.302929
0.302926
0.301746
0.140726
0.114715
0.114926
0.115136
0.115346
0.115557
0.115767
0.115977
0.116188
0.116398
0.116609
0.116819
0.117029
0.11724
0.11745
0.11766
0.117871
0.118081
0.118291
0.118502
0.118712
0.118923
0.119133
0.119343
0.119554
0.119764
0.119974
0.120185
0.120395
0.120605
0.120816
0.121026
0.121237
0.121447
0.121657
0.121868
0.122078
0.122288
0.122499
0.122709
0.122919
0.12313
0.12334
0.123551
0.123761
0.123971
0.124182
0.124392
0.124602
0.124813
0.125023
0.125234
0.125444
0.125654
0.125865
0.126075
0.126285
0.126496
0.126706
0.126916
0.127127
0.127337
0.127548
0.127758
0.127968
0.128179
0.128389
0.128599
0.12881
0.12902
0.129231
0.129441
0.129651
0.129862
0.130072
0.130282
0.130493
0.130703
0.130914
0.131124
0.131334
0.131545
0.131755
0.131965
0.132176
0.132386
0.132597
0.132807
0.133017
0.133228
0.133438
0.133648
0.133859
0.134069
0.13428
0.13449
0.1347
0.134911
0.135121
0.135332
0.135542
0.135752
0.135963
0.136173
0.136383
0.136594
0.136804
0.137015
0.137225
0.137435
0.137646
0.137856
0.138066
0.138277
0.138487
0.138698
0.138908
0.139118
0.139329
0.139539
0.139749
0.13996
0.14017
0.140381
0.140591
0.140801
0.300322
0.300343
0.300358
0.300374
0.300389
0.300403
0.300418
0.300433
0.300448
0.300462
0.300477
0.300491
0.300505
0.300519
0.300533
0.300547
0.300561
0.300575
0.300588
0.300602
0.300615
0.300629
0.300642
0.300655
0.300668
0.300681
0.300694
0.300707
0.300719
0.300732
0.300744
0.300757
0.300769
0.300782
0.300794
0.300806
0.300818
0.30083
0.300842
0.300853
0.300865
0.300877
0.300888
0.3009
0.300911
0.300923
0.300934
0.300945
0.300956
0.300967
0.300978
0.300989
0.301
0.30101
0.301021
0.301032
0.301042
0.301053
0.301063
0.301073
0.301083
0.301094
0.301104
0.301114
0.301124
0.301134
0.301144
0.301153
0.301163
0.301173
0.301182
0.301192
0.301201
0.301211
0.30122
0.301229
0.301239
0.301248
0.301257
0.301266
0.301275
0.301284
0.301293
0.301301
0.30131
0.301319
0.301328
0.301336
0.301345
0.301353
0.301362
0.30137
0.301378
0.301387
0.301395
0.301403
0.301411
0.301419
0.301427
0.301435
0.301443
0.301451
0.301459
0.301467
0.301474
0.301482
0.30149
0.301497
0.301505
0.301512
0.30152
0.301527
0.301535
0.301542
0.301549
0.301556
0.301564
0.301571
0.301578
0.301585
0.301592
0.301599
0.301606
0.301613
0.301621
0.302919
0.302919
0.302919
0.302919
0.302919
0.302919
0.302919
0.302919
0.302919
0.302919
0.30292
0.30292
0.30292
0.30292
0.30292
0.30292
0.30292
0.30292
0.30292
0.30292
0.30292
0.302921
0.302921
0.302921
0.302921
0.302921
0.302921
0.302921
0.302921
0.302921
0.302921
0.302921
0.302921
0.302921
0.302921
0.302922
0.302922
0.302922
0.302922
0.302922
0.302922
0.302922
0.302922
0.302922
0.302922
0.302922
0.302922
0.302922
0.302922
0.302922
0.302923
0.302923
0.302923
0.302923
0.302923
0.302923
0.302923
0.302923
0.302923
0.302923
0.302923
0.302923
0.302923
0.302923
0.302923
0.302923
0.302923
0.302924
0.302924
0.302924
0.302924
0.302924
0.302924
0.302924
0.302924
0.302924
0.302924
0.302924
0.302924
0.302924
0.302924
0.302924
0.302924
0.302924
0.302924
0.302924
0.302924
0.302924
0.302924
0.302925
0.302925
0.302925
0.302925
0.302925
0.302925
0.302925
0.302925
0.302925
0.302925
0.302925
0.302925
0.302925
0.302925
0.302925
0.302925
0.302925
0.302925
0.302925
0.302925
0.302925
0.302925
0.302925
0.302925
0.302925
0.302925
0.302925
0.302925
0.302926
0.302926
0.302926
0.302926
0.302926
0.302926
0.302926
0.302926
0.302929
0.302929
0.302929
0.302929
0.302929
0.302929
0.302929
0.302929
0.302929
0.302929
0.302929
0.302929
0.302929
0.302929
0.302929
0.302929
0.302929
0.302929
0.302929
0.302929
0.302929
0.302929
0.302929
0.302929
0.302929
0.302929
0.302929
0.302929
0.302929
0.302929
0.302929
0.302929
0.302929
0.302929
0.302929
0.302929
0.302929
0.302929
0.302929
0.302929
0.302929
0.302929
0.302929
0.302929
0.302929
0.302929
0.302929
0.302929
0.302929
0.302929
0.302929
0.302929
0.302929
0.302929
0.302929
0.302929
0.302929
0.302929
0.302929
0.302929
0.302929
0.302929
0.302929
0.302929
0.302929
0.302929
0.302929
0.302929
0.302929
0.302929
0.302929
0.302929
0.302929
0.302929
0.302929
0.302929
0.302929
0.302929
0.302929
0.302929
0.302929
0.302929
0.302929
0.302929
0.302929
0.302929
0.302929
0.302929
0.302929
0.302929
0.302929
0.302929
0.302929
0.302929
0.302929
0.302929
0.302929
0.302929
0.302929
0.302929
0.302929
0.302929
0.302929
0.302929
0.302929
0.302929
0.302929
0.302929
0.302929
0.302929
0.302929
0.302929
0.302929
0.302929
0.302929
0.302929
0.302929
0.302929
0.302929
0.302929
0.302929
0.302929
0.302929
0.302929
0.302929
0.302929
0.302929
0.302929
0.302929
0.302929
0.302929
0.302929