/*--------------------------------*- C++ -*----------------------------------*\
| =========                 |                                                 |
| \\      /  F ield         | OpenFOAM: The Open Source CFD Toolbox           |
|  \\    /   O peration     | Version:  2112                                  |
|   \\  /    A nd           | Website:  www.openfoam.com                      |
|    \\/     M anipulation  |                                                 |
\*---------------------------------------------------------------------------*/
FoamFile
{
    version     2.0;
    format      ascii;
    arch        "LSB;label=32;scalar=64";
    class       volScalarField;
    location    "4e-05";
    object      epsilon;
}
// * * * * * * * * * * * * * * * * * * * * * * * * * * * * * * * * * * * * * //

dimensions      [0 2 -3 0 0 0 0];

internalField   nonuniform List<scalar> 
13875
(
7.46248e+08
3.06944e+09
3.90821e+09
4.42078e+09
4.63721e+09
4.71829e+09
4.7446e+09
4.75211e+09
4.75395e+09
4.75426e+09
4.75421e+09
4.75408e+09
4.75397e+09
4.7539e+09
4.75382e+09
4.75367e+09
4.75324e+09
4.7514e+09
4.74397e+09
4.71786e+09
4.63709e+09
4.42087e+09
3.90854e+09
3.06961e+09
7.54817e+08
5.32042e+08
1.49123e+09
1.86484e+09
2.0743e+09
2.15947e+09
2.18957e+09
2.19881e+09
2.2013e+09
2.20187e+09
2.20193e+09
2.20188e+09
2.20181e+09
2.20175e+09
2.20172e+09
2.20168e+09
2.20162e+09
2.20145e+09
2.20083e+09
2.19835e+09
2.18922e+09
2.15932e+09
2.07442e+09
1.86563e+09
1.49227e+09
5.39514e+08
2.3467e+08
7.50192e+08
9.27651e+08
1.02505e+09
1.06044e+09
1.07166e+09
1.07482e+09
1.0756e+09
1.07574e+09
1.07573e+09
1.0757e+09
1.07566e+09
1.07563e+09
1.07561e+09
1.0756e+09
1.07558e+09
1.07554e+09
1.07537e+09
1.07459e+09
1.07144e+09
1.06026e+09
1.02491e+09
9.27357e+08
7.49934e+08
2.32408e+08
6.88186e+07
3.32957e+08
4.03014e+08
4.37785e+08
4.48648e+08
4.51801e+08
4.52607e+08
4.52784e+08
4.52808e+08
4.52801e+08
4.52786e+08
4.52768e+08
4.52754e+08
4.52748e+08
4.52743e+08
4.52735e+08
4.52721e+08
4.52678e+08
4.52487e+08
4.51676e+08
4.48526e+08
4.3768e+08
4.02884e+08
3.3258e+08
6.8317e+07
1.89107e+07
1.29265e+08
1.54071e+08
1.64257e+08
1.67059e+08
1.67823e+08
1.68004e+08
1.6804e+08
1.68043e+08
1.68041e+08
1.68036e+08
1.68029e+08
1.68024e+08
1.68022e+08
1.6802e+08
1.68017e+08
1.68011e+08
1.68e+08
1.67956e+08
1.67771e+08
1.67003e+08
1.6421e+08
1.5405e+08
1.29168e+08
1.87849e+07
2.65389e+06
1.61297e+07
1.93702e+07
2.04862e+07
2.07788e+07
2.08572e+07
2.08756e+07
2.08793e+07
2.08798e+07
2.08798e+07
2.08789e+07
2.08777e+07
2.08766e+07
2.08761e+07
2.08754e+07
2.08745e+07
2.08733e+07
2.08715e+07
2.08666e+07
2.08475e+07
2.0768e+07
2.04763e+07
1.93698e+07
1.61102e+07
2.643e+06
1.47085e+06
391856
389510
395787
397514
397976
398083
398106
398112
398113
398105
398095
398086
398081
398073
398064
398052
398038
398009
397898
397427
395698
389512
392101
1.47047e+06
1.4568e+06
289382
261524
260943
260938
260938
260938
260938
260938
260938
260938
260938
260938
260938
260938
260938
260938
260938
260938
260938
260937
260943
261526
289436
1.45669e+06
1.45545e+06
291240
261327
260660
260649
260649
260649
260649
260649
260649
260649
260649
260649
260649
260649
260649
260649
260649
260649
260649
260649
260660
261318
290929
1.45581e+06
1.57464e+06
300328
261832
260676
260648
260648
260648
260648
260648
260648
260648
260648
260648
260648
260648
260648
260648
260648
260648
260648
260648
260676
261825
300161
1.56913e+06
1.77593e+06
312759
262693
260710
260650
260648
260648
260648
260648
260648
260648
260648
260648
260648
260648
260648
260648
260648
260648
260648
260650
260716
262820
314642
1.79746e+06
1.94426e+06
324922
263613
260753
260651
260648
260648
260648
260648
260648
260648
260648
260648
260648
260648
260648
260648
260648
260648
260648
260651
260751
263587
324597
1.94783e+06
2.09024e+06
337421
264603
260804
260654
260648
260648
260648
260648
260648
260648
260648
260648
260648
260648
260648
260648
260648
260648
260648
260653
260794
264431
335339
2.0806e+06
2.20486e+06
347888
265442
260851
260656
260648
260648
260648
260648
260648
260648
260648
260648
260648
260648
260648
260648
260648
260648
260648
260655
260830
265079
344058
2.1562e+06
2.26333e+06
356514
266077
260890
260658
260648
260648
260648
260648
260648
260648
260648
260648
260648
260648
260648
260648
260648
260648
260648
260660
260929
266658
362298
2.29873e+06
2.42453e+06
374516
267776
261001
260664
260649
260648
260648
260648
260648
260648
260648
260648
260648
260648
260648
260648
260648
260648
260649
260665
261033
268217
378333
2.46541e+06
2.4203e+06
373185
267277
260959
260661
260648
260648
260648
260648
260648
260648
260648
260648
260648
260648
260648
260648
260648
260648
260648
260660
260945
267083
371199
2.41611e+06
2.38744e+06
368661
266615
260909
260657
260648
260648
260648
260648
260648
260648
260648
260648
260648
260648
260648
260648
260648
260648
260648
260657
260908
266613
368887
2.37941e+06
2.41864e+06
391492
268821
261036
260660
260648
260648
260648
260648
260648
260648
260648
260648
260648
260648
260648
260648
260648
260648
260648
260658
260989
268146
385325
2.39094e+06
2.43935e+06
410497
271319
261213
260667
260648
260648
260648
260648
260648
260648
260648
260648
260648
260648
260648
260648
260648
260648
260648
260668
261231
271559
412658
2.46101e+06
2.23716e+06
385697
268668
261024
260658
260648
260648
260648
260648
260648
260648
260648
260648
260648
260648
260648
260648
260648
260648
260648
260660
261072
269359
391869
2.26942e+06
2.06164e+06
361218
266187
260867
260653
260648
260648
260648
260648
260648
260648
260648
260648
260648
260648
260648
260648
260648
260648
260648
260653
260880
266383
362985
2.06532e+06
1.91161e+06
341976
264481
260776
260650
260648
260648
260648
260648
260648
260648
260648
260648
260648
260648
260648
260648
260648
260648
260648
260650
260768
264302
339675
1.89691e+06
1.78304e+06
325668
263243
260720
260649
260648
260648
260648
260648
260648
260648
260648
260648
260648
260648
260648
260648
260648
260648
260648
260649
260720
263254
325913
1.78716e+06
1.70787e+06
317669
262717
260699
260648
260648
260648
260648
260648
260648
260648
260648
260648
260648
260648
260648
260648
260648
260648
260648
260648
260701
262755
318266
1.71017e+06
1.63113e+06
310766
262308
260685
260648
260648
260648
260648
260648
260648
260648
260648
260648
260648
260648
260648
260648
260648
260648
260648
260648
260683
262246
309675
1.62425e+06
1.55726e+06
303653
261926
260673
260648
260648
260648
260648
260648
260648
260648
260648
260648
260648
260648
260648
260648
260648
260648
260648
260648
260675
261983
304779
1.56635e+06
1.50588e+06
299547
261725
260668
260648
260648
260648
260648
260648
260648
260648
260648
260648
260648
260648
260648
260648
260648
260648
260648
260648
260668
261730
299620
1.50316e+06
1.45337e+06
295894
261558
260663
260648
260648
260648
260648
260648
260648
260648
260648
260648
260648
260648
260648
260648
260648
260648
260648
260648
260662
261496
294523
1.44503e+06
1.39588e+06
290817
261342
260658
260648
260648
260648
260648
260648
260648
260648
260648
260648
260648
260648
260648
260648
260648
260648
260648
260648
260659
261391
292020
1.40603e+06
1.36224e+06
288406
261249
260656
260648
260648
260648
260648
260648
260648
260648
260648
260648
260648
260648
260648
260648
260648
260648
260648
260648
260656
261245
288302
1.35854e+06
1.32993e+06
286680
261187
260655
260648
260648
260648
260648
260648
260648
260648
260648
260648
260648
260648
260648
260648
260648
260648
260648
260648
260655
261159
285904
1.32564e+06
1.29174e+06
283697
261084
260653
260648
260648
260648
260648
260648
260648
260648
260648
260648
260648
260648
260648
260648
260648
260648
260648
260648
260653
261105
284343
1.2968e+06
1.26869e+06
282247
261037
260652
260648
260648
260648
260648
260648
260648
260648
260648
260648
260648
260648
260648
260648
260648
260648
260648
260648
260652
261032
282067
1.26585e+06
1.24701e+06
281335
261010
260652
260648
260648
260648
260648
260648
260648
260648
260648
260648
260648
260648
260648
260648
260648
260648
260648
260648
260652
260994
280813
1.2447e+06
1.22031e+06
279383
260952
260651
260648
260648
260648
260648
260648
260648
260648
260648
260648
260648
260648
260648
260648
260648
260648
260648
260648
260651
260969
279970
1.22442e+06
1.20381e+06
278446
260926
260651
260648
260648
260648
260648
260648
260648
260648
260648
260648
260648
260648
260648
260648
260648
260648
260648
260648
260650
260924
278343
1.2019e+06
1.18843e+06
277905
260913
260650
260648
260648
260648
260648
260648
260648
260648
260648
260648
260648
260648
260648
260648
260648
260648
260648
260648
260650
260901
277486
1.18683e+06
1.16985e+06
276553
260877
260650
260648
260648
260648
260648
260648
260648
260648
260648
260648
260648
260648
260648
260648
260648
260648
260648
260648
260650
260890
277039
1.17279e+06
1.15819e+06
275927
260862
260650
260648
260648
260648
260648
260648
260648
260648
260648
260648
260648
260648
260648
260648
260648
260648
260648
260648
260650
260860
275860
1.1569e+06
1.14749e+06
275622
260855
260650
260648
260648
260648
260648
260648
260648
260648
260648
260648
260648
260648
260648
260648
260648
260648
260648
260648
260649
260846
275262
1.14636e+06
1.13486e+06
274652
260832
260649
260648
260648
260648
260648
260648
260648
260648
260648
260648
260648
260648
260648
260648
260648
260648
260648
260648
260649
260841
275036
1.13674e+06
1.1269e+06
274226
260822
260649
260648
260648
260648
260648
260648
260648
260648
260648
260648
260648
260648
260648
260648
260648
260648
260648
260648
260649
260822
274197
1.12618e+06
1.11977e+06
274073
260819
260649
260648
260648
260648
260648
260648
260648
260648
260648
260648
260648
260648
260648
260648
260648
260648
260648
260648
260649
260813
273771
1.11905e+06
1.11172e+06
273373
260804
260649
260648
260648
260648
260648
260648
260648
260648
260648
260648
260648
260648
260648
260648
260648
260648
260648
260648
260649
260810
273651
1.1127e+06
1.10668e+06
273085
260798
260649
260648
260648
260648
260648
260648
260648
260648
260648
260648
260648
260648
260648
260648
260648
260648
260648
260648
260649
260798
273094
1.10638e+06
1.10231e+06
273031
260797
260649
260648
260648
260648
260648
260648
260648
260648
260648
260648
260648
260648
260648
260648
260648
260648
260648
260648
260649
260792
272785
1.10193e+06
1.09781e+06
272531
260787
260649
260648
260648
260648
260648
260648
260648
260648
260648
260648
260648
260648
260648
260648
260648
260648
260648
260648
260649
260791
272719
1.09819e+06
1.09504e+06
272340
260783
260649
260648
260648
260648
260648
260648
260648
260648
260648
260648
260648
260648
260648
260648
260648
260648
260648
260648
260649
260785
272404
1.09499e+06
1.09299e+06
272264
260782
260649
260648
260648
260648
260648
260648
260648
260648
260648
260648
260648
260648
260648
260648
260648
260648
260648
260648
260649
260781
272174
1.09293e+06
562852
263109
260785
260769
260767
260765
260763
260761
260759
260758
260756
260754
260753
260751
260750
260748
260747
260746
260744
260743
260742
260740
260739
260738
260737
260736
260734
260735
261467
495602
594081
262100
260659
260649
260649
260649
260649
260649
260649
260649
260649
260649
260649
260649
260649
260649
260649
260649
260648
260648
260648
260648
260648
260648
260648
260648
260648
260650
261457
500212
568130
261698
260654
260648
260648
260648
260648
260648
260648
260648
260648
260648
260648
260648
260648
260648
260648
260648
260648
260648
260648
260648
260648
260648
260648
260648
260648
260649
261483
504850
553931
261706
260653
260648
260648
260648
260648
260648
260648
260648
260648
260648
260648
260648
260648
260648
260648
260648
260648
260648
260648
260648
260648
260648
260648
260648
260648
260650
261503
508853
554461
261771
260653
260648
260648
260648
260648
260648
260648
260648
260648
260648
260648
260648
260648
260648
260648
260648
260648
260648
260648
260648
260648
260648
260648
260648
260648
260650
261525
512547
555482
261777
260653
260648
260648
260648
260648
260648
260648
260648
260648
260648
260648
260648
260648
260648
260648
260648
260648
260648
260648
260648
260648
260648
260648
260648
260648
260650
261547
516128
555205
261764
260653
260648
260648
260648
260648
260648
260648
260648
260648
260648
260648
260648
260648
260648
260648
260648
260648
260648
260648
260648
260648
260648
260648
260648
260648
260650
261569
519564
553457
261746
260652
260648
260648
260648
260648
260648
260648
260648
260648
260648
260648
260648
260648
260648
260648
260648
260648
260648
260648
260648
260648
260648
260648
260648
260648
260650
261588
522785
551692
261737
260652
260648
260648
260648
260648
260648
260648
260648
260648
260648
260648
260648
260648
260648
260648
260648
260648
260648
260648
260648
260648
260648
260648
260648
260648
260650
261607
525746
550500
261735
260652
260648
260648
260648
260648
260648
260648
260648
260648
260648
260648
260648
260648
260648
260648
260648
260648
260648
260648
260648
260648
260648
260648
260648
260648
260650
261623
528452
549962
261736
260652
260648
260648
260648
260648
260648
260648
260648
260648
260648
260648
260648
260648
260648
260648
260648
260648
260648
260648
260648
260648
260648
260648
260648
260648
260650
261639
530930
549840
261739
260651
260648
260648
260648
260648
260648
260648
260648
260648
260648
260648
260648
260648
260648
260648
260648
260648
260648
260648
260648
260648
260648
260648
260648
260648
260650
261653
533207
549822
261741
260651
260648
260648
260648
260648
260648
260648
260648
260648
260648
260648
260648
260648
260648
260648
260648
260648
260648
260648
260648
260648
260648
260648
260648
260648
260650
261666
535301
549985
261743
260651
260648
260648
260648
260648
260648
260648
260648
260648
260648
260648
260648
260648
260648
260648
260648
260648
260648
260648
260648
260648
260648
260648
260648
260648
260650
261679
537223
549801
261742
260651
260648
260648
260648
260648
260648
260648
260648
260648
260648
260648
260648
260648
260648
260648
260648
260648
260648
260648
260648
260648
260648
260648
260648
260648
260650
261690
538968
549947
261745
260651
260648
260648
260648
260648
260648
260648
260648
260648
260648
260648
260648
260648
260648
260648
260648
260648
260648
260648
260648
260648
260648
260648
260648
260648
260650
261700
540541
549946
261745
260651
260648
260648
260648
260648
260648
260648
260648
260648
260648
260648
260648
260648
260648
260648
260648
260648
260648
260648
260648
260648
260648
260648
260648
260648
260650
261709
541957
549829
261746
260651
260648
260648
260648
260648
260648
260648
260648
260648
260648
260648
260648
260648
260648
260648
260648
260648
260648
260648
260648
260648
260648
260648
260648
260648
260650
261717
543207
549860
261747
260651
260648
260648
260648
260648
260648
260648
260648
260648
260648
260648
260648
260648
260648
260648
260648
260648
260648
260648
260648
260648
260648
260648
260648
260648
260650
261724
544306
549717
261746
260651
260648
260648
260648
260648
260648
260648
260648
260648
260648
260648
260648
260648
260648
260648
260648
260648
260648
260648
260648
260648
260648
260648
260648
260648
260650
261730
545257
549556
261746
260651
260648
260648
260648
260648
260648
260648
260648
260648
260648
260648
260648
260648
260648
260648
260648
260648
260648
260648
260648
260648
260648
260648
260648
260648
260651
261735
546063
549439
261746
260651
260648
260648
260648
260648
260648
260648
260648
260648
260648
260648
260648
260648
260648
260648
260648
260648
260648
260648
260648
260648
260648
260648
260648
260648
260651
261739
546738
549143
261744
260651
260648
260648
260648
260648
260648
260648
260648
260648
260648
260648
260648
260648
260648
260648
260648
260648
260648
260648
260648
260648
260648
260648
260648
260648
260651
261742
547282
548881
261743
260651
260648
260648
260648
260648
260648
260648
260648
260648
260648
260648
260648
260648
260648
260648
260648
260648
260648
260648
260648
260648
260648
260648
260648
260648
260651
261745
547701
548633
261644
260650
260648
260648
260648
260648
260648
260648
260648
260648
260648
260648
260648
260648
260648
260648
260648
260648
260648
260648
260648
260648
260648
260648
260648
260648
260651
261746
548011
495605
261467
260735
260734
260736
260737
260738
260739
260740
260742
260743
260744
260746
260747
260748
260750
260751
260753
260755
260756
260758
260759
260761
260763
260765
260767
260769
260785
263111
563002
500214
261457
260650
260648
260648
260648
260648
260648
260648
260648
260648
260648
260649
260649
260649
260649
260649
260649
260649
260649
260649
260649
260649
260649
260649
260649
260649
260659
262099
594003
504857
261483
260649
260648
260648
260648
260648
260648
260648
260648
260648
260648
260648
260648
260648
260648
260648
260648
260648
260648
260648
260648
260648
260648
260648
260648
260648
260654
261698
568258
508855
261503
260650
260648
260648
260648
260648
260648
260648
260648
260648
260648
260648
260648
260648
260648
260648
260648
260648
260648
260648
260648
260648
260648
260648
260648
260648
260653
261704
553752
512545
261525
260650
260648
260648
260648
260648
260648
260648
260648
260648
260648
260648
260648
260648
260648
260648
260648
260648
260648
260648
260648
260648
260648
260648
260648
260648
260653
261772
554389
516131
261547
260650
260648
260648
260648
260648
260648
260648
260648
260648
260648
260648
260648
260648
260648
260648
260648
260648
260648
260648
260648
260648
260648
260648
260648
260648
260653
261777
555735
519563
261568
260650
260648
260648
260648
260648
260648
260648
260648
260648
260648
260648
260648
260648
260648
260648
260648
260648
260648
260648
260648
260648
260648
260648
260648
260648
260653
261762
554868
522782
261588
260650
260648
260648
260648
260648
260648
260648
260648
260648
260648
260648
260648
260648
260648
260648
260648
260648
260648
260648
260648
260648
260648
260648
260648
260648
260652
261749
553641
525747
261607
260650
260648
260648
260648
260648
260648
260648
260648
260648
260648
260648
260648
260648
260648
260648
260648
260648
260648
260648
260648
260648
260648
260648
260648
260648
260652
261736
551669
528449
261623
260650
260648
260648
260648
260648
260648
260648
260648
260648
260648
260648
260648
260648
260648
260648
260648
260648
260648
260648
260648
260648
260648
260648
260648
260648
260652
261735
550422
530932
261639
260650
260648
260648
260648
260648
260648
260648
260648
260648
260648
260648
260648
260648
260648
260648
260648
260648
260648
260648
260648
260648
260648
260648
260648
260648
260652
261737
550143
533209
261653
260650
260648
260648
260648
260648
260648
260648
260648
260648
260648
260648
260648
260648
260648
260648
260648
260648
260648
260648
260648
260648
260648
260648
260648
260648
260651
261737
549692
535299
261666
260650
260648
260648
260648
260648
260648
260648
260648
260648
260648
260648
260648
260648
260648
260648
260648
260648
260648
260648
260648
260648
260648
260648
260648
260648
260651
261742
549845
537223
261679
260650
260648
260648
260648
260648
260648
260648
260648
260648
260648
260648
260648
260648
260648
260648
260648
260648
260648
260648
260648
260648
260648
260648
260648
260648
260651
261743
550003
538968
261690
260650
260648
260648
260648
260648
260648
260648
260648
260648
260648
260648
260648
260648
260648
260648
260648
260648
260648
260648
260648
260648
260648
260648
260648
260648
260651
261742
549816
540540
261700
260650
260648
260648
260648
260648
260648
260648
260648
260648
260648
260648
260648
260648
260648
260648
260648
260648
260648
260648
260648
260648
260648
260648
260648
260648
260651
261745
549897
541956
261709
260650
260648
260648
260648
260648
260648
260648
260648
260648
260648
260648
260648
260648
260648
260648
260648
260648
260648
260648
260648
260648
260648
260648
260648
260648
260651
261746
549991
543209
261717
260650
260648
260648
260648
260648
260648
260648
260648
260648
260648
260648
260648
260648
260648
260648
260648
260648
260648
260648
260648
260648
260648
260648
260648
260648
260651
261745
549841
544304
261724
260650
260648
260648
260648
260648
260648
260648
260648
260648
260648
260648
260648
260648
260648
260648
260648
260648
260648
260648
260648
260648
260648
260648
260648
260648
260651
261747
549797
545256
261730
260650
260648
260648
260648
260648
260648
260648
260648
260648
260648
260648
260648
260648
260648
260648
260648
260648
260648
260648
260648
260648
260648
260648
260648
260648
260651
261747
549769
546066
261735
260651
260648
260648
260648
260648
260648
260648
260648
260648
260648
260648
260648
260648
260648
260648
260648
260648
260648
260648
260648
260648
260648
260648
260648
260648
260651
261746
549565
546736
261739
260651
260648
260648
260648
260648
260648
260648
260648
260648
260648
260648
260648
260648
260648
260648
260648
260648
260648
260648
260648
260648
260648
260648
260648
260648
260651
261746
549375
547280
261742
260651
260648
260648
260648
260648
260648
260648
260648
260648
260648
260648
260648
260648
260648
260648
260648
260648
260648
260648
260648
260648
260648
260648
260648
260648
260651
261745
549197
547703
261745
260651
260648
260648
260648
260648
260648
260648
260648
260648
260648
260648
260648
260648
260648
260648
260648
260648
260648
260648
260648
260648
260648
260648
260648
260648
260651
261743
548878
548012
261746
260651
260648
260648
260648
260648
260648
260648
260648
260648
260648
260648
260648
260648
260648
260648
260648
260648
260648
260648
260648
260648
260648
260648
260648
260648
260650
261644
548624
666170
665015
663863
662715
661572
660432
659296
658164
657036
655912
654791
653675
652562
651453
650348
649247
648149
647055
645965
644878
643795
642715
641640
640568
639499
638434
637372
636314
635260
634209
633161
632117
631077
630040
629006
627975
626948
625925
624904
623887
622874
621863
620856
619852
618851
617854
616860
615869
614881
613896
612915
611936
610961
609989
609020
608053
607091
606131
605174
604220
603269
602321
601376
600434
599495
598559
597626
596696
595768
594844
593922
593003
592087
591174
590264
589357
588452
587550
586651
585754
584861
583970
583081
582196
581313
580433
579555
578680
577808
576938
576071
575207
574345
573486
572629
571775
570923
570074
569228
568384
567542
566703
565867
565033
564201
563372
562545
561721
560899
560079
559262
558447
557635
556825
556017
555212
554409
553608
552810
552014
551220
550428
549639
548852
548067
262855
262837
262824
262811
262798
262786
262773
262760
262748
262736
262723
262711
262699
262687
262675
262663
262651
262640
262628
262617
262605
262594
262582
262571
262560
262549
262538
262527
262516
262506
262495
262484
262474
262463
262453
262443
262432
262422
262412
262402
262392
262382
262373
262363
262353
262343
262334
262324
262315
262306
262296
262287
262278
262269
262260
262251
262242
262233
262224
262215
262207
262198
262189
262181
262172
262164
262156
262147
262139
262131
262123
262115
262107
262099
262091
262083
262075
262067
262059
262052
262044
262037
262029
262022
262014
262007
261999
261992
261985
261978
261970
261963
261956
261949
261942
261935
261928
261922
261915
261908
261901
261895
261888
261881
261875
261868
261862
261856
261849
261843
261836
261830
261824
261818
261812
261805
261799
261793
261787
261781
261775
261770
261764
261758
261751
260657
260656
260656
260656
260656
260656
260656
260656
260656
260656
260656
260656
260656
260656
260655
260655
260655
260655
260655
260655
260655
260655
260655
260655
260655
260655
260655
260655
260654
260654
260654
260654
260654
260654
260654
260654
260654
260654
260654
260654
260654
260654
260654
260654
260654
260653
260653
260653
260653
260653
260653
260653
260653
260653
260653
260653
260653
260653
260653
260653
260653
260653
260653
260653
260653
260653
260652
260652
260652
260652
260652
260652
260652
260652
260652
260652
260652
260652
260652
260652
260652
260652
260652
260652
260652
260652
260652
260652
260652
260652
260652
260652
260651
260651
260651
260651
260651
260651
260651
260651
260651
260651
260651
260651
260651
260651
260651
260651
260651
260651
260651
260651
260651
260651
260651
260651
260651
260651
260651
260651
260651
260651
260651
260651
260651
260648
260648
260648
260648
260648
260648
260648
260648
260648
260648
260648
260648
260648
260648
260648
260648
260648
260648
260648
260648
260648
260648
260648
260648
260648
260648
260648
260648
260648
260648
260648
260648
260648
260648
260648
260648
260648
260648
260648
260648
260648
260648
260648
260648
260648
260648
260648
260648
260648
260648
260648
260648
260648
260648
260648
260648
260648
260648
260648
260648
260648
260648
260648
260648
260648
260648
260648
260648
260648
260648
260648
260648
260648
260648
260648
260648
260648
260648
260648
260648
260648
260648
260648
260648
260648
260648
260648
260648
260648
260648
260648
260648
260648
260648
260648
260648
260648
260648
260648
260648
260648
260648
260648
260648
260648
260648
260648
260648
260648
260648
260648
260648
260648
260648
260648
260648
260648
260648
260648
260648
260648
260648
260648
260648
260648
260648
260648
260648
260648
260648
260648
260648
260648
260648
260648
260648
260648
260648
260648
260648
260648
260648
260648
260648
260648
260648
260648
260648
260648
260648
260648
260648
260648
260648
260648
260648
260648
260648
260648
260648
260648
260648
260648
260648
260648
260648
260648
260648
260648
260648
260648
260648
260648
260648
260648
260648
260648
260648
260648
260648
260648
260648
260648
260648
260648
260648
260648
260648
260648
260648
260648
260648
260648
260648
260648
260648
260648
260648
260648
260648
260648
260648
260648
260648
260648
260648
260648
260648
260648
260648
260648
260648
260648
260648
260648
260648
260648
260648
260648
260648
260648
260648
260648
260648
260648
260648
260648
260648
260648
260648
260648
260648
260648
260648
260648
260648
260648
260648
260648
260648
260648
260648
260648
260648
260648
260648
260648
260648
260648
260648
260648
260648
260648
260648
260648
260648
260648
260648
260648
260648
260648
260648
260648
260648
260648
260648
260648
260648
260648
260648
260648
260648
260648
260648
260648
260648
260648
260648
260648
260648
260648
260648
260648
260648
260648
260648
260648
260648
260648
260648
260648
260648
260648
260648
260648
260648
260648
260648
260648
260648
260648
260648
260648
260648
260648
260648
260648
260648
260648
260648
260648
260648
260648
260648
260648
260648
260648
260648
260648
260648
260648
260648
260648
260648
260648
260648
260648
260648
260648
260648
260648
260648
260648
260648
260648
260648
260648
260648
260648
260648
260648
260648
260648
260648
260648
260648
260648
260648
260648
260648
260648
260648
260648
260648
260648
260648
260648
260648
260648
260648
260648
260648
260648
260648
260648
260648
260648
260648
260648
260648
260648
260648
260648
260648
260648
260648
260648
260648
260648
260648
260648
260648
260648
260648
260648
260648
260648
260648
260648
260648
260648
260648
260648
260648
260648
260648
260648
260648
260648
260648
260648
260648
260648
260648
260648
260648
260648
260648
260648
260648
260648
260648
260648
260648
260648
260648
260648
260648
260648
260648
260648
260648
260648
260648
260648
260648
260648
260648
260648
260648
260648
260648
260648
260648
260648
260648
260648
260648
260648
260648
260648
260648
260648
260648
260648
260648
260648
260648
260648
260648
260648
260648
260648
260648
260648
260648
260648
260648
260648
260648
260648
260648
260648
260648
260648
260648
260648
260648
260648
260648
260648
260648
260648
260648
260648
260648
260648
260648
260648
260648
260648
260648
260648
260648
260648
260648
260648
260648
260648
260648
260648
260648
260648
260648
260648
260648
260648
260648
260648
260648
260648
260648
260648
260648
260648
260648
260648
260648
260648
260648
260648
260648
260648
260648
260648
260648
260648
260648
260648
260648
260648
260648
260648
260648
260648
260648
260648
260648
260648
260648
260648
260648
260648
260648
260648
260648
260648
260648
260648
260648
260648
260648
260648
260648
260648
260648
260648
260648
260648
260648
260648
260648
260648
260648
260648
260648
260648
260648
260648
260648
260648
260648
260648
260648
260648
260648
260648
260648
260648
260648
260648
260648
260648
260648
260648
260648
260648
260648
260648
260648
260648
260648
260648
260648
260648
260648
260648
260648
260648
260648
260648
260648
260648
260648
260648
260648
260648
260648
260648
260648
260648
260648
260648
260648
260648
260648
260648
260648
260648
260648
260648
260648
260648
260648
260648
260648
260648
260648
260648
260648
260648
260648
260648
260648
260648
260648
260648
260648
260648
260648
260648
260648
260648
260648
260648
260648
260648
260648
260648
260648
260648
260648
260648
260648
260648
260648
260648
260648
260648
260648
260648
260648
260648
260648
260648
260648
260648
260648
260648
260648
260648
260648
260648
260648
260648
260648
260648
260648
260648
260648
260648
260648
260648
260648
260648
260648
260648
260648
260648
260648
260648
260648
260648
260648
260648
260648
260648
260648
260648
260648
260648
260648
260648
260648
260648
260648
260648
260648
260648
260648
260648
260648
260648
260648
260648
260648
260648
260648
260648
260648
260648
260648
260648
260648
260648
260648
260648
260648
260648
260648
260648
260648
260648
260648
260648
260648
260648
260648
260648
260648
260648
260648
260648
260648
260648
260648
260648
260648
260648
260648
260648
260648
260648
260648
260648
260648
260648
260648
260648
260648
260648
260648
260648
260648
260648
260648
260648
260648
260648
260648
260648
260648
260648
260648
260648
260648
260648
260648
260648
260648
260648
260648
260648
260648
260648
260648
260648
260648
260648
260648
260648
260648
260648
260648
260648
260648
260648
260648
260648
260648
260648
260648
260648
260648
260648
260648
260648
260648
260648
260648
260648
260648
260648
260648
260648
260648
260648
260648
260648
260648
260648
260648
260648
260648
260648
260648
260648
260648
260648
260648
260648
260648
260648
260648
260648
260648
260648
260648
260648
260648
260648
260648
260648
260648
260648
260648
260648
260648
260648
260648
260648
260648
260648
260648
260648
260648
260648
260648
260648
260648
260648
260648
260648
260648
260648
260648
260648
260648
260648
260648
260648
260648
260648
260648
260648