/*--------------------------------*- C++ -*----------------------------------*\
| =========                 |                                                 |
| \\      /  F ield         | OpenFOAM: The Open Source CFD Toolbox           |
|  \\    /   O peration     | Version:  2112                                  |
|   \\  /    A nd           | Website:  www.openfoam.com                      |
|    \\/     M anipulation  |                                                 |
\*---------------------------------------------------------------------------*/
FoamFile
{
    version     2.0;
    format      ascii;
    arch        "LSB;label=32;scalar=64";
    class       volScalarField;
    location    "4e-05";
    object      k;
}
// * * * * * * * * * * * * * * * * * * * * * * * * * * * * * * * * * * * * * //

dimensions      [0 2 -2 0 0 0 0];

internalField   nonuniform List<scalar> 
13875
(
64107.8
501729
636243
709607
740395
751846
755562
756627
756891
756941
756940
756927
756914
756905
756896
756878
756819
756558
755507
751815
740398
709630
636280
501680
64591.7
53174.8
311449
388625
426525
441618
446862
448457
448886
448984
448997
448990
448981
448972
448966
448961
448952
448925
448820
448395
446816
441604
426556
388759
311615
53655.6
31395.5
196590
241223
262049
269360
271614
272236
272385
272413
272412
272405
272398
272392
272389
272387
272384
272377
272345
272194
271574
269327
262020
241160
196496
31190.3
14110.8
107509
128696
137445
140038
140758
140936
140974
140978
140976
140973
140969
140966
140964
140963
140961
140958
140949
140908
140729
140009
137418
128656
107367
14038.7
6027.66
48073.1
56501.9
59337
60065.3
60253.2
60296
60304.3
60305
60304.4
60303.1
60301.2
60299.8
60299.3
60298.6
60297.6
60296.1
60293.4
60283.2
60239
60049.8
59322.7
56493.2
48031.7
6000.74
1616.12
7323.06
8530.86
8859.71
8939.76
8960.14
8964.78
8965.72
8965.89
8965.88
8965.61
8965.22
8964.88
8964.67
8964.42
8964.09
8963.67
8963.12
8961.86
8956.95
8936.16
8856.17
8530.43
7314.71
1610.89
948.647
1041.75
1054.02
1056.19
1056.69
1056.82
1056.85
1056.85
1056.86
1056.86
1056.86
1056.85
1056.85
1056.85
1056.84
1056.84
1056.83
1056.83
1056.82
1056.79
1056.66
1056.15
1054
1041.48
948.256
940.904
988.289
989.67
989.712
989.713
989.714
989.714
989.714
989.714
989.714
989.714
989.714
989.714
989.714
989.714
989.714
989.714
989.714
989.714
989.713
989.713
989.711
989.671
988.295
941.003
941.641
988.118
989.449
989.476
989.476
989.476
989.476
989.476
989.476
989.476
989.476
989.476
989.476
989.476
989.476
989.476
989.476
989.476
989.476
989.476
989.476
989.476
989.452
988.146
941.793
941.529
988.456
989.531
989.482
989.474
989.473
989.473
989.473
989.473
989.473
989.473
989.473
989.473
989.473
989.473
989.473
989.473
989.473
989.473
989.473
989.474
989.482
989.531
988.458
941.656
936.928
988.497
989.622
989.495
989.475
989.473
989.473
989.473
989.473
989.473
989.473
989.473
989.473
989.473
989.473
989.473
989.473
989.473
989.473
989.473
989.476
989.497
989.635
988.496
936.417
931.68
988.321
989.699
989.509
989.477
989.473
989.473
989.473
989.473
989.473
989.473
989.473
989.473
989.473
989.473
989.473
989.473
989.473
989.473
989.473
989.477
989.508
989.697
988.319
931.583
926.449
987.994
989.756
989.522
989.479
989.474
989.473
989.473
989.473
989.473
989.473
989.473
989.473
989.473
989.473
989.473
989.473
989.473
989.473
989.474
989.479
989.519
989.739
987.985
926.591
921.594
987.553
989.774
989.531
989.481
989.474
989.473
989.473
989.473
989.473
989.473
989.473
989.473
989.473
989.473
989.473
989.473
989.473
989.473
989.474
989.48
989.525
989.74
987.582
923.011
918.217
987.052
989.741
989.534
989.482
989.474
989.473
989.473
989.473
989.473
989.473
989.473
989.473
989.473
989.473
989.473
989.473
989.473
989.473
989.474
989.484
989.546
989.791
987.047
917.318
911.352
986.323
989.748
989.548
989.485
989.475
989.473
989.473
989.473
989.473
989.473
989.473
989.473
989.473
989.473
989.473
989.473
989.473
989.473
989.475
989.487
989.558
989.793
986.319
910.351
908.506
985.582
989.537
989.514
989.48
989.474
989.473
989.473
989.473
989.473
989.473
989.473
989.473
989.473
989.473
989.473
989.473
989.473
989.473
989.474
989.48
989.511
989.53
985.607
908.613
904.792
984.78
989.252
989.471
989.474
989.473
989.473
989.473
989.473
989.473
989.473
989.473
989.473
989.473
989.473
989.473
989.473
989.473
989.473
989.473
989.474
989.466
989.214
984.64
904.265
894.623
982.186
988.656
989.391
989.464
989.472
989.473
989.473
989.473
989.473
989.473
989.473
989.473
989.473
989.473
989.473
989.473
989.473
989.473
989.472
989.466
989.404
988.744
982.629
896.577
889.268
979.993
988.184
989.316
989.454
989.471
989.473
989.473
989.473
989.473
989.473
989.473
989.473
989.473
989.473
989.473
989.473
989.473
989.473
989.471
989.453
989.313
988.157
979.874
888.124
898.005
981.257
988.433
989.355
989.459
989.472
989.473
989.473
989.473
989.473
989.473
989.473
989.473
989.473
989.473
989.473
989.473
989.473
989.473
989.471
989.457
989.34
988.338
980.773
896.071
906.662
982.878
988.745
989.401
989.465
989.472
989.473
989.473
989.473
989.473
989.473
989.473
989.473
989.473
989.473
989.473
989.473
989.473
989.473
989.472
989.465
989.396
988.713
982.714
906.333
914.277
984.206
988.971
989.43
989.469
989.473
989.473
989.473
989.473
989.473
989.473
989.473
989.473
989.473
989.473
989.473
989.473
989.473
989.473
989.473
989.469
989.432
988.996
984.385
915.188
921.01
985.368
989.14
989.448
989.471
989.473
989.473
989.473
989.473
989.473
989.473
989.473
989.473
989.473
989.473
989.473
989.473
989.473
989.473
989.473
989.471
989.448
989.139
985.352
920.769
924.516
985.887
989.209
989.455
989.472
989.473
989.473
989.473
989.473
989.473
989.473
989.473
989.473
989.473
989.473
989.473
989.473
989.473
989.473
989.473
989.471
989.455
989.203
985.838
924.351
928.197
986.331
989.261
989.46
989.472
989.473
989.473
989.473
989.473
989.473
989.473
989.473
989.473
989.473
989.473
989.473
989.473
989.473
989.473
989.473
989.472
989.461
989.27
986.418
928.647
931.933
986.816
989.312
989.464
989.472
989.473
989.473
989.473
989.473
989.473
989.473
989.473
989.473
989.473
989.473
989.473
989.473
989.473
989.473
989.473
989.472
989.463
989.303
986.725
931.315
934.282
987.072
989.338
989.466
989.472
989.473
989.473
989.473
989.473
989.473
989.473
989.473
989.473
989.473
989.473
989.473
989.473
989.473
989.473
989.473
989.472
989.466
989.337
987.066
934.441
936.833
987.307
989.359
989.467
989.473
989.473
989.473
989.473
989.473
989.473
989.473
989.473
989.473
989.473
989.473
989.473
989.473
989.473
989.473
989.473
989.473
989.468
989.369
987.419
937.454
940.018
987.674
989.39
989.469
989.473
989.473
989.473
989.473
989.473
989.473
989.473
989.473
989.473
989.473
989.473
989.473
989.473
989.473
989.473
989.473
989.473
989.469
989.382
987.574
939.269
941.567
987.826
989.401
989.47
989.473
989.473
989.473
989.473
989.473
989.473
989.473
989.473
989.473
989.473
989.473
989.473
989.473
989.473
989.473
989.473
989.473
989.47
989.402
987.837
941.815
943.095
987.932
989.409
989.47
989.473
989.473
989.473
989.473
989.473
989.473
989.473
989.473
989.473
989.473
989.473
989.473
989.473
989.473
989.473
989.473
989.473
989.471
989.414
987.994
943.446
945.248
988.147
989.424
989.471
989.473
989.473
989.473
989.473
989.473
989.473
989.473
989.473
989.473
989.473
989.473
989.473
989.473
989.473
989.473
989.473
989.473
989.471
989.42
988.093
944.831
946.309
988.236
989.43
989.471
989.473
989.473
989.473
989.473
989.473
989.473
989.473
989.473
989.473
989.473
989.473
989.473
989.473
989.473
989.473
989.473
989.473
989.471
989.431
988.255
946.558
947.312
988.29
989.433
989.472
989.473
989.473
989.473
989.473
989.473
989.473
989.473
989.473
989.473
989.473
989.473
989.473
989.473
989.473
989.473
989.473
989.473
989.472
989.435
988.33
947.515
948.852
988.43
989.441
989.472
989.473
989.473
989.473
989.473
989.473
989.473
989.473
989.473
989.473
989.473
989.473
989.473
989.473
989.473
989.473
989.473
989.473
989.472
989.438
988.381
948.473
949.619
988.487
989.444
989.472
989.473
989.473
989.473
989.473
989.473
989.473
989.473
989.473
989.473
989.473
989.473
989.473
989.473
989.473
989.473
989.473
989.473
989.472
989.445
988.499
949.803
950.336
988.518
989.446
989.472
989.473
989.473
989.473
989.473
989.473
989.473
989.473
989.473
989.473
989.473
989.473
989.473
989.473
989.473
989.473
989.473
989.473
989.472
989.447
988.55
950.494
951.463
988.617
989.451
989.472
989.473
989.473
989.473
989.473
989.473
989.473
989.473
989.473
989.473
989.473
989.473
989.473
989.473
989.473
989.473
989.473
989.473
989.472
989.449
988.576
951.151
952.011
988.654
989.453
989.472
989.473
989.473
989.473
989.473
989.473
989.473
989.473
989.473
989.473
989.473
989.473
989.473
989.473
989.473
989.473
989.473
989.473
989.472
989.453
988.664
952.155
952.514
988.672
989.453
989.472
989.473
989.473
989.473
989.473
989.473
989.473
989.473
989.473
989.473
989.473
989.473
989.473
989.473
989.473
989.473
989.473
989.473
989.473
989.455
988.698
952.651
953.342
988.744
989.457
989.473
989.473
989.473
989.473
989.473
989.473
989.473
989.473
989.473
989.473
989.473
989.473
989.473
989.473
989.473
989.473
989.473
989.473
989.473
989.455
988.711
953.097
953.725
988.769
989.458
989.473
989.473
989.473
989.473
989.473
989.473
989.473
989.473
989.473
989.473
989.473
989.473
989.473
989.473
989.473
989.473
989.473
989.473
989.473
989.458
988.775
953.826
954.065
988.778
989.458
989.473
989.473
989.473
989.473
989.473
989.473
989.473
989.473
989.473
989.473
989.473
989.473
989.473
989.473
989.473
989.473
989.473
989.473
989.473
989.459
988.8
954.182
954.659
988.831
989.461
989.473
989.473
989.473
989.473
989.473
989.473
989.473
989.473
989.473
989.473
989.473
989.473
989.473
989.473
989.473
989.473
989.473
989.473
989.473
989.46
988.807
954.482
954.913
988.847
989.461
989.473
989.473
989.473
989.473
989.473
989.473
989.473
989.473
989.473
989.473
989.473
989.473
989.473
989.473
989.473
989.473
989.473
989.473
989.473
989.462
988.85
954.973
955.13
988.851
989.462
989.473
989.473
989.473
989.473
989.473
989.473
989.473
989.473
989.473
989.473
989.473
989.473
989.473
989.473
989.473
989.473
989.473
989.473
989.473
989.462
988.869
955.226
955.538
988.891
989.463
989.473
989.473
989.473
989.473
989.473
989.473
989.473
989.473
989.473
989.473
989.473
989.473
989.473
989.473
989.473
989.473
989.473
989.473
989.473
989.463
988.873
955.405
955.692
988.901
989.464
989.473
989.473
989.473
989.473
989.473
989.473
989.473
989.473
989.473
989.473
989.473
989.473
989.473
989.473
989.473
989.473
989.473
989.473
989.473
989.464
988.898
955.687
955.995
988.899
989.464
989.473
989.473
989.473
989.473
989.473
989.473
989.473
989.473
989.473
989.473
989.473
989.473
989.473
989.473
989.473
989.473
989.473
989.473
989.473
989.464
988.906
956.037
980.912
989.772
989.764
989.757
989.753
989.748
989.744
989.739
989.735
989.731
989.727
989.723
989.719
989.716
989.712
989.709
989.705
989.702
989.699
989.695
989.692
989.689
989.686
989.683
989.68
989.678
989.675
989.672
989.631
980.683
979.623
989.521
989.479
989.477
989.476
989.476
989.476
989.476
989.476
989.476
989.476
989.476
989.476
989.476
989.475
989.475
989.475
989.475
989.475
989.475
989.475
989.475
989.475
989.475
989.475
989.475
989.475
989.475
989.437
980.124
980.143
989.498
989.475
989.473
989.473
989.473
989.473
989.473
989.473
989.473
989.473
989.473
989.473
989.473
989.473
989.473
989.473
989.473
989.473
989.473
989.473
989.473
989.473
989.473
989.473
989.473
989.473
989.473
989.434
979.935
980.225
989.483
989.474
989.473
989.473
989.473
989.473
989.473
989.473
989.473
989.473
989.473
989.473
989.473
989.473
989.473
989.473
989.473
989.473
989.473
989.473
989.473
989.473
989.473
989.473
989.473
989.473
989.473
989.433
979.775
980.089
989.478
989.474
989.473
989.473
989.473
989.473
989.473
989.473
989.473
989.473
989.473
989.473
989.473
989.473
989.473
989.473
989.473
989.473
989.473
989.473
989.473
989.473
989.473
989.473
989.473
989.473
989.473
989.432
979.626
979.957
989.475
989.474
989.473
989.473
989.473
989.473
989.473
989.473
989.473
989.473
989.473
989.473
989.473
989.473
989.473
989.473
989.473
989.473
989.473
989.473
989.473
989.473
989.473
989.473
989.473
989.473
989.473
989.431
979.482
979.843
989.471
989.474
989.473
989.473
989.473
989.473
989.473
989.473
989.473
989.473
989.473
989.473
989.473
989.473
989.473
989.473
989.473
989.473
989.473
989.473
989.473
989.473
989.473
989.473
989.473
989.473
989.473
989.43
979.344
979.746
989.465
989.474
989.473
989.473
989.473
989.473
989.473
989.473
989.473
989.473
989.473
989.473
989.473
989.473
989.473
989.473
989.473
989.473
989.473
989.473
989.473
989.473
989.473
989.473
989.473
989.473
989.473
989.429
979.215
979.644
989.46
989.474
989.473
989.473
989.473
989.473
989.473
989.473
989.473
989.473
989.473
989.473
989.473
989.473
989.473
989.473
989.473
989.473
989.473
989.473
989.473
989.473
989.473
989.473
989.473
989.473
989.473
989.428
979.096
979.537
989.456
989.474
989.473
989.473
989.473
989.473
989.473
989.473
989.473
989.473
989.473
989.473
989.473
989.473
989.473
989.473
989.473
989.473
989.473
989.473
989.473
989.473
989.473
989.473
989.473
989.473
989.473
989.427
978.987
979.427
989.452
989.474
989.473
989.473
989.473
989.473
989.473
989.473
989.473
989.473
989.473
989.473
989.473
989.473
989.473
989.473
989.473
989.473
989.473
989.473
989.473
989.473
989.473
989.473
989.473
989.473
989.473
989.427
978.888
979.319
989.449
989.473
989.473
989.473
989.473
989.473
989.473
989.473
989.473
989.473
989.473
989.473
989.473
989.473
989.473
989.473
989.473
989.473
989.473
989.473
989.473
989.473
989.473
989.473
989.473
989.473
989.473
989.426
978.796
979.213
989.446
989.473
989.473
989.473
989.473
989.473
989.473
989.473
989.473
989.473
989.473
989.473
989.473
989.473
989.473
989.473
989.473
989.473
989.473
989.473
989.473
989.473
989.473
989.473
989.473
989.473
989.473
989.425
978.712
979.111
989.443
989.473
989.473
989.473
989.473
989.473
989.473
989.473
989.473
989.473
989.473
989.473
989.473
989.473
989.473
989.473
989.473
989.473
989.473
989.473
989.473
989.473
989.473
989.473
989.473
989.473
989.473
989.425
978.635
979.013
989.44
989.473
989.473
989.473
989.473
989.473
989.473
989.473
989.473
989.473
989.473
989.473
989.473
989.473
989.473
989.473
989.473
989.473
989.473
989.473
989.473
989.473
989.473
989.473
989.473
989.473
989.473
989.424
978.564
978.919
989.438
989.473
989.473
989.473
989.473
989.473
989.473
989.473
989.473
989.473
989.473
989.473
989.473
989.473
989.473
989.473
989.473
989.473
989.473
989.473
989.473
989.473
989.473
989.473
989.473
989.473
989.473
989.424
978.501
978.83
989.436
989.473
989.473
989.473
989.473
989.473
989.473
989.473
989.473
989.473
989.473
989.473
989.473
989.473
989.473
989.473
989.473
989.473
989.473
989.473
989.473
989.473
989.473
989.473
989.473
989.473
989.473
989.423
978.444
978.745
989.434
989.473
989.473
989.473
989.473
989.473
989.473
989.473
989.473
989.473
989.473
989.473
989.473
989.473
989.473
989.473
989.473
989.473
989.473
989.473
989.473
989.473
989.473
989.473
989.473
989.473
989.473
989.423
978.394
978.667
989.432
989.473
989.473
989.473
989.473
989.473
989.473
989.473
989.473
989.473
989.473
989.473
989.473
989.473
989.473
989.473
989.473
989.473
989.473
989.473
989.473
989.473
989.473
989.473
989.473
989.473
989.473
989.422
978.35
978.593
989.43
989.473
989.473
989.473
989.473
989.473
989.473
989.473
989.473
989.473
989.473
989.473
989.473
989.473
989.473
989.473
989.473
989.473
989.473
989.473
989.473
989.473
989.473
989.473
989.473
989.473
989.473
989.422
978.311
978.524
989.428
989.473
989.473
989.473
989.473
989.473
989.473
989.473
989.473
989.473
989.473
989.473
989.473
989.473
989.473
989.473
989.473
989.473
989.473
989.473
989.473
989.473
989.473
989.473
989.473
989.473
989.473
989.422
978.279
978.463
989.427
989.473
989.473
989.473
989.473
989.473
989.473
989.473
989.473
989.473
989.473
989.473
989.473
989.473
989.473
989.473
989.473
989.473
989.473
989.473
989.473
989.473
989.473
989.473
989.473
989.473
989.473
989.422
978.252
978.405
989.426
989.473
989.473
989.473
989.473
989.473
989.473
989.473
989.473
989.473
989.473
989.473
989.473
989.473
989.473
989.473
989.473
989.473
989.473
989.473
989.473
989.473
989.473
989.473
989.473
989.473
989.473
989.422
978.23
978.354
989.425
989.473
989.473
989.473
989.473
989.473
989.473
989.473
989.473
989.473
989.473
989.473
989.473
989.473
989.473
989.473
989.473
989.473
989.473
989.473
989.473
989.473
989.473
989.473
989.473
989.473
989.473
989.422
978.213
978.349
989.425
989.473
989.473
989.473
989.473
989.473
989.473
989.473
989.473
989.473
989.473
989.473
989.473
989.473
989.473
989.473
989.473
989.473
989.473
989.473
989.473
989.473
989.473
989.473
989.473
989.473
989.473
989.421
978.201
980.683
989.631
989.672
989.675
989.678
989.68
989.683
989.686
989.689
989.692
989.695
989.699
989.702
989.705
989.709
989.712
989.716
989.72
989.723
989.727
989.731
989.735
989.74
989.744
989.748
989.753
989.758
989.765
989.773
980.909
980.124
989.437
989.475
989.475
989.475
989.475
989.475
989.475
989.475
989.475
989.475
989.475
989.475
989.475
989.475
989.475
989.476
989.476
989.476
989.476
989.476
989.476
989.476
989.476
989.476
989.476
989.477
989.479
989.521
979.625
979.935
989.434
989.473
989.473
989.473
989.473
989.473
989.473
989.473
989.473
989.473
989.473
989.473
989.473
989.473
989.473
989.473
989.473
989.473
989.473
989.473
989.473
989.473
989.473
989.473
989.473
989.473
989.475
989.498
980.14
979.775
989.433
989.473
989.473
989.473
989.473
989.473
989.473
989.473
989.473
989.473
989.473
989.473
989.473
989.473
989.473
989.473
989.473
989.473
989.473
989.473
989.473
989.473
989.473
989.473
989.473
989.473
989.474
989.483
980.228
979.626
989.432
989.473
989.473
989.473
989.473
989.473
989.473
989.473
989.473
989.473
989.473
989.473
989.473
989.473
989.473
989.473
989.473
989.473
989.473
989.473
989.473
989.473
989.473
989.473
989.473
989.473
989.474
989.478
980.09
979.482
989.431
989.473
989.473
989.473
989.473
989.473
989.473
989.473
989.473
989.473
989.473
989.473
989.473
989.473
989.473
989.473
989.473
989.473
989.473
989.473
989.473
989.473
989.473
989.473
989.473
989.473
989.474
989.475
979.953
979.344
989.43
989.473
989.473
989.473
989.473
989.473
989.473
989.473
989.473
989.473
989.473
989.473
989.473
989.473
989.473
989.473
989.473
989.473
989.473
989.473
989.473
989.473
989.473
989.473
989.473
989.473
989.474
989.47
979.848
979.215
989.429
989.473
989.473
989.473
989.473
989.473
989.473
989.473
989.473
989.473
989.473
989.473
989.473
989.473
989.473
989.473
989.473
989.473
989.473
989.473
989.473
989.473
989.473
989.473
989.473
989.473
989.474
989.465
979.743
979.096
989.428
989.473
989.473
989.473
989.473
989.473
989.473
989.473
989.473
989.473
989.473
989.473
989.473
989.473
989.473
989.473
989.473
989.473
989.473
989.473
989.473
989.473
989.473
989.473
989.473
989.473
989.474
989.46
979.645
978.987
989.427
989.473
989.473
989.473
989.473
989.473
989.473
989.473
989.473
989.473
989.473
989.473
989.473
989.473
989.473
989.473
989.473
989.473
989.473
989.473
989.473
989.473
989.473
989.473
989.473
989.473
989.474
989.456
979.538
978.887
989.427
989.473
989.473
989.473
989.473
989.473
989.473
989.473
989.473
989.473
989.473
989.473
989.473
989.473
989.473
989.473
989.473
989.473
989.473
989.473
989.473
989.473
989.473
989.473
989.473
989.473
989.474
989.452
979.426
978.796
989.426
989.473
989.473
989.473
989.473
989.473
989.473
989.473
989.473
989.473
989.473
989.473
989.473
989.473
989.473
989.473
989.473
989.473
989.473
989.473
989.473
989.473
989.473
989.473
989.473
989.473
989.473
989.448
979.319
978.712
989.425
989.473
989.473
989.473
989.473
989.473
989.473
989.473
989.473
989.473
989.473
989.473
989.473
989.473
989.473
989.473
989.473
989.473
989.473
989.473
989.473
989.473
989.473
989.473
989.473
989.473
989.473
989.446
979.213
978.635
989.425
989.473
989.473
989.473
989.473
989.473
989.473
989.473
989.473
989.473
989.473
989.473
989.473
989.473
989.473
989.473
989.473
989.473
989.473
989.473
989.473
989.473
989.473
989.473
989.473
989.473
989.473
989.443
979.111
978.564
989.424
989.473
989.473
989.473
989.473
989.473
989.473
989.473
989.473
989.473
989.473
989.473
989.473
989.473
989.473
989.473
989.473
989.473
989.473
989.473
989.473
989.473
989.473
989.473
989.473
989.473
989.473
989.44
979.013
978.501
989.424
989.473
989.473
989.473
989.473
989.473
989.473
989.473
989.473
989.473
989.473
989.473
989.473
989.473
989.473
989.473
989.473
989.473
989.473
989.473
989.473
989.473
989.473
989.473
989.473
989.473
989.473
989.438
978.919
978.444
989.423
989.473
989.473
989.473
989.473
989.473
989.473
989.473
989.473
989.473
989.473
989.473
989.473
989.473
989.473
989.473
989.473
989.473
989.473
989.473
989.473
989.473
989.473
989.473
989.473
989.473
989.473
989.436
978.831
978.394
989.423
989.473
989.473
989.473
989.473
989.473
989.473
989.473
989.473
989.473
989.473
989.473
989.473
989.473
989.473
989.473
989.473
989.473
989.473
989.473
989.473
989.473
989.473
989.473
989.473
989.473
989.473
989.434
978.745
978.35
989.422
989.473
989.473
989.473
989.473
989.473
989.473
989.473
989.473
989.473
989.473
989.473
989.473
989.473
989.473
989.473
989.473
989.473
989.473
989.473
989.473
989.473
989.473
989.473
989.473
989.473
989.473
989.432
978.666
978.311
989.422
989.473
989.473
989.473
989.473
989.473
989.473
989.473
989.473
989.473
989.473
989.473
989.473
989.473
989.473
989.473
989.473
989.473
989.473
989.473
989.473
989.473
989.473
989.473
989.473
989.473
989.473
989.43
978.594
978.279
989.422
989.473
989.473
989.473
989.473
989.473
989.473
989.473
989.473
989.473
989.473
989.473
989.473
989.473
989.473
989.473
989.473
989.473
989.473
989.473
989.473
989.473
989.473
989.473
989.473
989.473
989.473
989.429
978.524
978.252
989.422
989.473
989.473
989.473
989.473
989.473
989.473
989.473
989.473
989.473
989.473
989.473
989.473
989.473
989.473
989.473
989.473
989.473
989.473
989.473
989.473
989.473
989.473
989.473
989.473
989.473
989.473
989.427
978.462
978.23
989.422
989.473
989.473
989.473
989.473
989.473
989.473
989.473
989.473
989.473
989.473
989.473
989.473
989.473
989.473
989.473
989.473
989.473
989.473
989.473
989.473
989.473
989.473
989.473
989.473
989.473
989.473
989.426
978.407
978.213
989.422
989.473
989.473
989.473
989.473
989.473
989.473
989.473
989.473
989.473
989.473
989.473
989.473
989.473
989.473
989.473
989.473
989.473
989.473
989.473
989.473
989.473
989.473
989.473
989.473
989.473
989.473
989.425
978.354
978.201
989.421
989.473
989.473
989.473
989.473
989.473
989.473
989.473
989.473
989.473
989.473
989.473
989.473
989.473
989.473
989.473
989.473
989.473
989.473
989.473
989.473
989.473
989.473
989.473
989.473
989.473
989.473
989.425
978.349
973.441
973.488
973.534
973.581
973.627
973.673
973.719
973.764
973.81
973.855
973.9
973.945
973.99
974.035
974.08
974.124
974.168
974.212
974.256
974.3
974.344
974.387
974.431
974.474
974.517
974.56
974.603
974.646
974.688
974.73
974.773
974.815
974.857
974.899
974.94
974.982
975.023
975.064
975.106
975.146
975.187
975.228
975.269
975.309
975.349
975.39
975.43
975.47
975.509
975.549
975.589
975.628
975.667
975.707
975.746
975.784
975.823
975.862
975.9
975.939
975.977
976.015
976.053
976.091
976.129
976.167
976.204
976.242
976.279
976.316
976.354
976.391
976.427
976.464
976.501
976.537
976.574
976.61
976.646
976.682
976.718
976.754
976.79
976.826
976.861
976.897
976.932
976.967
977.002
977.037
977.072
977.107
977.142
977.176
977.211
977.245
977.279
977.313
977.347
977.381
977.415
977.449
977.483
977.516
977.55
977.583
977.616
977.649
977.682
977.715
977.748
977.781
977.814
977.846
977.879
977.911
977.943
977.976
978.008
978.04
978.072
978.103
978.135
978.167
978.198
989.369
989.37
989.371
989.371
989.372
989.372
989.373
989.374
989.374
989.375
989.375
989.376
989.376
989.377
989.378
989.378
989.379
989.379
989.38
989.38
989.381
989.381
989.382
989.382
989.383
989.384
989.384
989.385
989.385
989.386
989.386
989.387
989.387
989.388
989.388
989.389
989.389
989.39
989.39
989.39
989.391
989.391
989.392
989.392
989.393
989.393
989.394
989.394
989.395
989.395
989.395
989.396
989.396
989.397
989.397
989.398
989.398
989.398
989.399
989.399
989.4
989.4
989.401
989.401
989.401
989.402
989.402
989.403
989.403
989.403
989.404
989.404
989.404
989.405
989.405
989.406
989.406
989.406
989.407
989.407
989.407
989.408
989.408
989.408
989.409
989.409
989.409
989.41
989.41
989.411
989.411
989.411
989.412
989.412
989.412
989.413
989.413
989.413
989.413
989.414
989.414
989.414
989.415
989.415
989.415
989.416
989.416
989.416
989.417
989.417
989.417
989.417
989.418
989.418
989.418
989.419
989.419
989.419
989.42
989.42
989.42
989.42
989.421
989.421
989.421
989.473
989.473
989.473
989.473
989.473
989.473
989.473
989.473
989.473
989.473
989.473
989.473
989.473
989.473
989.473
989.473
989.473
989.473
989.473
989.473
989.473
989.473
989.473
989.473
989.473
989.473
989.473
989.473
989.473
989.473
989.473
989.473
989.473
989.473
989.473
989.473
989.473
989.473
989.473
989.473
989.473
989.473
989.473
989.473
989.473
989.473
989.473
989.473
989.473
989.473
989.473
989.473
989.473
989.473
989.473
989.473
989.473
989.473
989.473
989.473
989.473
989.473
989.473
989.473
989.473
989.473
989.473
989.473
989.473
989.473
989.473
989.473
989.473
989.473
989.473
989.473
989.473
989.473
989.473
989.473
989.473
989.473
989.473
989.473
989.473
989.473
989.473
989.473
989.473
989.473
989.473
989.473
989.473
989.473
989.473
989.473
989.473
989.473
989.473
989.473
989.473
989.473
989.473
989.473
989.473
989.473
989.473
989.473
989.473
989.473
989.473
989.473
989.473
989.473
989.473
989.473
989.473
989.473
989.473
989.473
989.473
989.473
989.473
989.473
989.473
989.473
989.473
989.473
989.473
989.473
989.473
989.473
989.473
989.473
989.473
989.473
989.473
989.473
989.473
989.473
989.473
989.473
989.473
989.473
989.473
989.473
989.473
989.473
989.473
989.473
989.473
989.473
989.473
989.473
989.473
989.473
989.473
989.473
989.473
989.473
989.473
989.473
989.473
989.473
989.473
989.473
989.473
989.473
989.473
989.473
989.473
989.473
989.473
989.473
989.473
989.473
989.473
989.473
989.473
989.473
989.473
989.473
989.473
989.473
989.473
989.473
989.473
989.473
989.473
989.473
989.473
989.473
989.473
989.473
989.473
989.473
989.473
989.473
989.473
989.473
989.473
989.473
989.473
989.473
989.473
989.473
989.473
989.473
989.473
989.473
989.473
989.473
989.473
989.473
989.473
989.473
989.473
989.473
989.473
989.473
989.473
989.473
989.473
989.473
989.473
989.473
989.473
989.473
989.473
989.473
989.473
989.473
989.473
989.473
989.473
989.473
989.473
989.473
989.473
989.473
989.473
989.473
989.473
989.473
989.473
989.473
989.473
989.473
989.473
989.473
989.473
989.473
989.473
989.473
989.473
989.473
989.473
989.473
989.473
989.473
989.473
989.473
989.473
989.473
989.473
989.473
989.473
989.473
989.473
989.473
989.473
989.473
989.473
989.473
989.473
989.473
989.473
989.473
989.473
989.473
989.473
989.473
989.473
989.473
989.473
989.473
989.473
989.473
989.473
989.473
989.473
989.473
989.473
989.473
989.473
989.473
989.473
989.473
989.473
989.473
989.473
989.473
989.473
989.473
989.473
989.473
989.473
989.473
989.473
989.473
989.473
989.473
989.473
989.473
989.473
989.473
989.473
989.473
989.473
989.473
989.473
989.473
989.473
989.473
989.473
989.473
989.473
989.473
989.473
989.473
989.473
989.473
989.473
989.473
989.473
989.473
989.473
989.473
989.473
989.473
989.473
989.473
989.473
989.473
989.473
989.473
989.473
989.473
989.473
989.473
989.473
989.473
989.473
989.473
989.473
989.473
989.473
989.473
989.473
989.473
989.473
989.473
989.473
989.473
989.473
989.473
989.473
989.473
989.473
989.473
989.473
989.473
989.473
989.473
989.473
989.473
989.473
989.473
989.473
989.473
989.473
989.473
989.473
989.473
989.473
989.473
989.473
989.473
989.473
989.473
989.473
989.473
989.473
989.473
989.473
989.473
989.473
989.473
989.473
989.473
989.473
989.473
989.473
989.473
989.473
989.473
989.473
989.473
989.473
989.473
989.473
989.473
989.473
989.473
989.473
989.473
989.473
989.473
989.473
989.473
989.473
989.473
989.473
989.473
989.473
989.473
989.473
989.473
989.473
989.473
989.473
989.473
989.473
989.473
989.473
989.473
989.473
989.473
989.473
989.473
989.473
989.473
989.473
989.473
989.473
989.473
989.473
989.473
989.473
989.473
989.473
989.473
989.473
989.473
989.473
989.473
989.473
989.473
989.473
989.473
989.473
989.473
989.473
989.473
989.473
989.473
989.473
989.473
989.473
989.473
989.473
989.473
989.473
989.473
989.473
989.473
989.473
989.473
989.473
989.473
989.473
989.473
989.473
989.473
989.473
989.473
989.473
989.473
989.473
989.473
989.473
989.473
989.473
989.473
989.473
989.473
989.473
989.473
989.473
989.473
989.473
989.473
989.473
989.473
989.473
989.473
989.473
989.473
989.473
989.473
989.473
989.473
989.473
989.473
989.473
989.473
989.473
989.473
989.473
989.473
989.473
989.473
989.473
989.473
989.473
989.473
989.473
989.473
989.473
989.473
989.473
989.473
989.473
989.473
989.473
989.473
989.473
989.473
989.473
989.473
989.473
989.473
989.473
989.473
989.473
989.473
989.473
989.473
989.473
989.473
989.473
989.473
989.473
989.473
989.473
989.473
989.473
989.473
989.473
989.473
989.473
989.473
989.473
989.473
989.473
989.473
989.473
989.473
989.473
989.473
989.473
989.473
989.473
989.473
989.473
989.473
989.473
989.473
989.473
989.473
989.473
989.473
989.473
989.473
989.473
989.473
989.473
989.473
989.473
989.473
989.473
989.473
989.473
989.473
989.473
989.473
989.473
989.473
989.473
989.473
989.473
989.473
989.473
989.473
989.473
989.473
989.473
989.473
989.473
989.473
989.473
989.473
989.473
989.473
989.473
989.473
989.473
989.473
989.473
989.473
989.473
989.473
989.473
989.473
989.473
989.473
989.473
989.473
989.473
989.473
989.473
989.473
989.473
989.473
989.473
989.473
989.473
989.473
989.473
989.473
989.473
989.473
989.473
989.473
989.473
989.473
989.473
989.473
989.473
989.473
989.473
989.473
989.473
989.473
989.473
989.473
989.473
989.473
989.473
989.473
989.473