/*--------------------------------*- C++ -*----------------------------------*\
| =========                 |                                                 |
| \\      /  F ield         | OpenFOAM: The Open Source CFD Toolbox           |
|  \\    /   O peration     | Version:  2112                                  |
|   \\  /    A nd           | Website:  www.openfoam.com                      |
|    \\/     M anipulation  |                                                 |
\*---------------------------------------------------------------------------*/
FoamFile
{
    version     2.0;
    format      ascii;
    arch        "LSB;label=32;scalar=64";
    class       volScalarField;
    location    "4e-05";
    object      nut;
}
// * * * * * * * * * * * * * * * * * * * * * * * * * * * * * * * * * * * * * //

dimensions      [0 2 -1 0 0 0 0];

internalField   nonuniform List<scalar> 
13875
(
0.495657
7.38111
9.32205
10.2513
10.6393
10.7824
10.8289
10.8422
10.8456
10.8464
10.8464
10.8464
10.8462
10.8462
10.8461
10.8459
10.8452
10.8419
10.8287
10.7825
10.6397
10.2518
9.32232
7.37927
0.497455
0.478309
5.85428
7.28891
7.89332
8.12809
8.20788
8.23184
8.23824
8.23972
8.23995
8.23991
8.23981
8.23972
8.23964
8.23958
8.23947
8.23912
8.2376
8.23127
8.20751
8.12812
7.894
7.29086
5.85642
0.480254
0.378024
4.6365
5.6454
6.0292
6.15773
6.19569
6.20579
6.20814
6.20856
6.20854
6.20845
6.20835
6.20827
6.20822
6.20818
6.20816
6.20807
6.20759
6.20522
6.19516
6.15727
6.02872
5.64423
4.63368
0.376731
0.260398
3.12421
3.69875
3.88365
3.93393
3.94676
3.9497
3.95027
3.95032
3.95028
3.95021
3.95014
3.95009
3.95006
3.95004
3.95001
3.94997
3.94984
3.94921
3.94623
3.93336
3.88303
3.69762
3.11952
0.259637
0.172915
1.60904
1.86487
1.92917
1.94366
1.94694
1.94761
1.94772
1.94772
1.94771
1.94768
1.94764
1.94761
1.9476
1.94758
1.94756
1.94752
1.94748
1.94733
1.94663
1.9433
1.92879
1.86455
1.60748
0.172521
0.0885736
0.299227
0.338137
0.344842
0.346158
0.34643
0.346484
0.346495
0.346499
0.3465
0.346493
0.346484
0.346474
0.346467
0.346459
0.346449
0.346437
0.346424
0.346406
0.346346
0.346059
0.344733
0.338112
0.298907
0.0883639
0.055066
0.249255
0.256695
0.253668
0.252805
0.252573
0.252519
0.252508
0.252505
0.252505
0.252508
0.252513
0.252517
0.252519
0.252522
0.252526
0.252531
0.252537
0.252552
0.252608
0.252844
0.253707
0.256687
0.248967
0.0550349
0.054693
0.303766
0.337063
0.337842
0.337851
0.33785
0.33785
0.33785
0.33785
0.33785
0.33785
0.33785
0.33785
0.33785
0.33785
0.33785
0.33785
0.33785
0.33785
0.33785
0.337851
0.337842
0.337062
0.303713
0.0547088
0.0548296
0.301724
0.337167
0.338048
0.338062
0.338062
0.338062
0.338062
0.338062
0.338062
0.338062
0.338062
0.338062
0.338062
0.338062
0.338062
0.338062
0.338062
0.338062
0.338062
0.338062
0.338049
0.337181
0.302064
0.0548339
0.0506675
0.292793
0.336572
0.338032
0.338062
0.338062
0.338062
0.338062
0.338062
0.338062
0.338062
0.338062
0.338062
0.338062
0.338062
0.338062
0.338062
0.338062
0.338062
0.338062
0.338062
0.338032
0.336581
0.292957
0.050859
0.0444864
0.28118
0.335531
0.337996
0.338061
0.338062
0.338062
0.338062
0.338062
0.338062
0.338062
0.338062
0.338062
0.338062
0.338062
0.338062
0.338062
0.338062
0.338062
0.338062
0.338061
0.33799
0.335377
0.279496
0.0439057
0.0401812
0.270558
0.334412
0.33795
0.33806
0.338062
0.338062
0.338062
0.338062
0.338062
0.338062
0.338062
0.338062
0.338062
0.338062
0.338062
0.338062
0.338062
0.338062
0.338062
0.33806
0.337952
0.334444
0.270827
0.0400992
0.0369564
0.260363
0.333199
0.337894
0.338059
0.338062
0.338062
0.338062
0.338062
0.338062
0.338062
0.338062
0.338062
0.338062
0.338062
0.338062
0.338062
0.338062
0.338062
0.338062
0.338059
0.337904
0.333404
0.261975
0.037139
0.0346689
0.252304
0.332158
0.337839
0.338057
0.338062
0.338062
0.338062
0.338062
0.338062
0.338062
0.338062
0.338062
0.338062
0.338062
0.338062
0.338062
0.338062
0.338062
0.338062
0.338057
0.337861
0.332591
0.255128
0.0355605
0.0335263
0.24595
0.331344
0.33779
0.338055
0.338062
0.338062
0.338062
0.338062
0.338062
0.338062
0.338062
0.338062
0.338062
0.338062
0.338062
0.338062
0.338062
0.338062
0.338062
0.338053
0.337747
0.330654
0.242021
0.0329454
0.030831
0.233782
0.329245
0.337656
0.33805
0.338062
0.338062
0.338062
0.338062
0.338062
0.338062
0.338062
0.338062
0.338062
0.338062
0.338062
0.338062
0.338062
0.338062
0.338062
0.338048
0.337621
0.328734
0.231421
0.0302531
0.0306923
0.234263
0.32972
0.337687
0.338051
0.338062
0.338062
0.338062
0.338062
0.338062
0.338062
0.338062
0.338062
0.338062
0.338062
0.338062
0.338062
0.338062
0.338062
0.338062
0.338051
0.337702
0.329954
0.235528
0.0307528
0.0308608
0.236752
0.330348
0.337722
0.338051
0.338062
0.338062
0.338062
0.338062
0.338062
0.338062
0.338062
0.338062
0.338062
0.338062
0.338062
0.338062
0.338062
0.338062
0.338062
0.338051
0.33772
0.330325
0.23654
0.030929
0.0297819
0.221772
0.327242
0.337504
0.33804
0.338061
0.338062
0.338062
0.338062
0.338062
0.338062
0.338062
0.338062
0.338062
0.338062
0.338062
0.338062
0.338062
0.338062
0.338062
0.338044
0.337573
0.328125
0.225525
0.0302587
0.0291765
0.210562
0.32392
0.337223
0.338024
0.338061
0.338062
0.338062
0.338062
0.338062
0.338062
0.338062
0.338062
0.338062
0.338062
0.338062
0.338062
0.338062
0.338062
0.338061
0.338023
0.337198
0.323616
0.209408
0.0288454
0.0324416
0.224678
0.327281
0.337494
0.338039
0.338061
0.338062
0.338062
0.338062
0.338062
0.338062
0.338062
0.338062
0.338062
0.338062
0.338062
0.338062
0.338062
0.338062
0.338061
0.338035
0.337422
0.326378
0.220922
0.0318429
0.0358855
0.240698
0.33054
0.337728
0.33805
0.338062
0.338062
0.338062
0.338062
0.338062
0.338062
0.338062
0.338062
0.338062
0.338062
0.338062
0.338062
0.338062
0.338062
0.338062
0.338049
0.337709
0.330275
0.239447
0.0357956
0.0393549
0.254928
0.332825
0.337867
0.338056
0.338062
0.338062
0.338062
0.338062
0.338062
0.338062
0.338062
0.338062
0.338062
0.338062
0.338062
0.338062
0.338062
0.338062
0.338062
0.338057
0.337879
0.333066
0.25675
0.0397391
0.0428164
0.268327
0.334504
0.337952
0.338059
0.338062
0.338062
0.338062
0.338062
0.338062
0.338062
0.338062
0.338062
0.338062
0.338062
0.338062
0.338062
0.338062
0.338062
0.338062
0.338059
0.337951
0.334489
0.268117
0.0426953
0.0450419
0.275374
0.335221
0.337983
0.33806
0.338062
0.338062
0.338062
0.338062
0.338062
0.338062
0.338062
0.338062
0.338062
0.338062
0.338062
0.338062
0.338062
0.338062
0.338062
0.33806
0.337981
0.335168
0.274829
0.0449654
0.0475372
0.281744
0.335779
0.338005
0.338061
0.338062
0.338062
0.338062
0.338062
0.338062
0.338062
0.338062
0.338062
0.338062
0.338062
0.338062
0.338062
0.338062
0.338062
0.338062
0.338061
0.338008
0.335865
0.282787
0.0477849
0.0501939
0.288628
0.336303
0.338023
0.338061
0.338062
0.338062
0.338062
0.338062
0.338062
0.338062
0.338062
0.338062
0.338062
0.338062
0.338062
0.338062
0.338062
0.338062
0.338062
0.338061
0.33802
0.336223
0.287508
0.0498363
0.0521683
0.292736
0.336579
0.338031
0.338062
0.338062
0.338062
0.338062
0.338062
0.338062
0.338062
0.338062
0.338062
0.338062
0.338062
0.338062
0.338062
0.338062
0.338062
0.338062
0.338062
0.338031
0.336572
0.292661
0.0522808
0.054349
0.29649
0.336808
0.338038
0.338062
0.338062
0.338062
0.338062
0.338062
0.338062
0.338062
0.338062
0.338062
0.338062
0.338062
0.338062
0.338062
0.338062
0.338062
0.338062
0.338062
0.33804
0.336894
0.297938
0.054735
0.0569729
0.30189
0.337107
0.338046
0.338062
0.338062
0.338062
0.338062
0.338062
0.338062
0.338062
0.338062
0.338062
0.338062
0.338062
0.338062
0.338062
0.338062
0.338062
0.338062
0.338062
0.338044
0.337038
0.300586
0.0564713
0.0585721
0.304508
0.337235
0.338049
0.338062
0.338062
0.338062
0.338062
0.338062
0.338062
0.338062
0.338062
0.338062
0.338062
0.338062
0.338062
0.338062
0.338062
0.338062
0.338062
0.338062
0.338049
0.337241
0.304625
0.0587625
0.06019
0.306407
0.337321
0.338051
0.338062
0.338062
0.338062
0.338062
0.338062
0.338062
0.338062
0.338062
0.338062
0.338062
0.338062
0.338062
0.338062
0.338062
0.338062
0.338062
0.338062
0.338052
0.33736
0.307277
0.0604297
0.0622528
0.309764
0.337464
0.338054
0.338062
0.338062
0.338062
0.338062
0.338062
0.338062
0.338062
0.338062
0.338062
0.338062
0.338062
0.338062
0.338062
0.338062
0.338062
0.338062
0.338062
0.338053
0.337434
0.309026
0.0619553
0.0635261
0.311412
0.337528
0.338055
0.338062
0.338062
0.338062
0.338062
0.338062
0.338062
0.338062
0.338062
0.338062
0.338062
0.338062
0.338062
0.338062
0.338062
0.338062
0.338062
0.338062
0.338055
0.337536
0.311622
0.0637021
0.0647679
0.312455
0.337565
0.338056
0.338062
0.338062
0.338062
0.338062
0.338062
0.338062
0.338062
0.338062
0.338062
0.338062
0.338062
0.338062
0.338062
0.338062
0.338062
0.338062
0.338062
0.338056
0.337587
0.313061
0.0649158
0.0664004
0.314728
0.337646
0.338057
0.338062
0.338062
0.338062
0.338062
0.338062
0.338062
0.338062
0.338062
0.338062
0.338062
0.338062
0.338062
0.338062
0.338062
0.338062
0.338062
0.338062
0.338057
0.337622
0.314036
0.0661247
0.067419
0.315823
0.337681
0.338058
0.338062
0.338062
0.338062
0.338062
0.338062
0.338062
0.338062
0.338062
0.338062
0.338062
0.338062
0.338062
0.338062
0.338062
0.338062
0.338062
0.338062
0.338058
0.337685
0.315948
0.0675527
0.0683949
0.316458
0.3377
0.338058
0.338062
0.338062
0.338062
0.338062
0.338062
0.338062
0.338062
0.338062
0.338062
0.338062
0.338062
0.338062
0.338062
0.338062
0.338062
0.338062
0.338062
0.338058
0.337716
0.316956
0.0685098
0.0696462
0.318069
0.33775
0.338059
0.338062
0.338062
0.338062
0.338062
0.338062
0.338062
0.338062
0.338062
0.338062
0.338062
0.338062
0.338062
0.338062
0.338062
0.338062
0.338062
0.338062
0.338059
0.337732
0.317484
0.0694257
0.0704284
0.318814
0.337771
0.338059
0.338062
0.338062
0.338062
0.338062
0.338062
0.338062
0.338062
0.338062
0.338062
0.338062
0.338062
0.338062
0.338062
0.338062
0.338062
0.338062
0.338062
0.338059
0.337773
0.318898
0.0705281
0.07116
0.319178
0.33778
0.338059
0.338062
0.338062
0.338062
0.338062
0.338062
0.338062
0.338062
0.338062
0.338062
0.338062
0.338062
0.338062
0.338062
0.338062
0.338062
0.338062
0.338062
0.33806
0.337792
0.319613
0.0712508
0.0720772
0.320352
0.337812
0.33806
0.338062
0.338062
0.338062
0.338062
0.338062
0.338062
0.338062
0.338062
0.338062
0.338062
0.338062
0.338062
0.338062
0.338062
0.338062
0.338062
0.338062
0.33806
0.3378
0.319884
0.0719208
0.0726444
0.320865
0.337825
0.33806
0.338062
0.338062
0.338062
0.338062
0.338062
0.338062
0.338062
0.338062
0.338062
0.338062
0.338062
0.338062
0.338062
0.338062
0.338062
0.338062
0.338062
0.33806
0.337826
0.320903
0.0727067
0.0731594
0.321051
0.33783
0.33806
0.338062
0.338062
0.338062
0.338062
0.338062
0.338062
0.338062
0.338062
0.338062
0.338062
0.338062
0.338062
0.338062
0.338062
0.338062
0.338062
0.338062
0.33806
0.337839
0.321419
0.0732246
0.0737809
0.321907
0.337851
0.33806
0.338062
0.338062
0.338062
0.338062
0.338062
0.338062
0.338062
0.338062
0.338062
0.338062
0.338062
0.338062
0.338062
0.338062
0.338062
0.338062
0.338062
0.33806
0.337843
0.321564
0.0736882
0.0741562
0.322257
0.337859
0.33806
0.338062
0.338062
0.338062
0.338062
0.338062
0.338062
0.338062
0.338062
0.338062
0.338062
0.338062
0.338062
0.338062
0.338062
0.338062
0.338062
0.338062
0.33806
0.337859
0.322249
0.0741858
0.0744844
0.322324
0.337861
0.33806
0.338062
0.338062
0.338062
0.338062
0.338062
0.338062
0.338062
0.338062
0.338062
0.338062
0.338062
0.338062
0.338062
0.338062
0.338062
0.338062
0.338062
0.338061
0.337868
0.322627
0.0745248
0.0748536
0.322941
0.337875
0.338061
0.338062
0.338062
0.338062
0.338062
0.338062
0.338062
0.338062
0.338062
0.338062
0.338062
0.338062
0.338062
0.338062
0.338062
0.338062
0.338062
0.338062
0.338061
0.33787
0.322707
0.0748064
0.075067
0.323175
0.33788
0.338061
0.338062
0.338062
0.338062
0.338062
0.338062
0.338062
0.338062
0.338062
0.338062
0.338062
0.338062
0.338062
0.338062
0.338062
0.338062
0.338062
0.338062
0.338061
0.337878
0.323096
0.0750694
0.075255
0.323263
0.337881
0.338061
0.338062
0.338062
0.338062
0.338062
0.338062
0.338062
0.338062
0.338062
0.338062
0.338062
0.338062
0.338062
0.338062
0.338062
0.338062
0.338062
0.338062
0.338061
0.337884
0.323374
0.0752658
0.153854
0.335102
0.338083
0.3381
0.338099
0.338098
0.338098
0.338097
0.338096
0.338096
0.338095
0.338095
0.338094
0.338094
0.338093
0.338093
0.338092
0.338092
0.338091
0.338091
0.33809
0.33809
0.338089
0.338089
0.338088
0.338088
0.338088
0.338085
0.33711
0.174649
0.145383
0.336221
0.338052
0.338063
0.338063
0.338063
0.338063
0.338063
0.338063
0.338063
0.338063
0.338063
0.338063
0.338063
0.338063
0.338063
0.338063
0.338063
0.338063
0.338063
0.338063
0.338063
0.338063
0.338063
0.338063
0.338063
0.338063
0.33806
0.336991
0.172843
0.152186
0.336723
0.338055
0.338062
0.338062
0.338062
0.338062
0.338062
0.338062
0.338062
0.338062
0.338062
0.338062
0.338062
0.338062
0.338062
0.338062
0.338062
0.338062
0.338062
0.338062
0.338062
0.338062
0.338062
0.338062
0.338062
0.338062
0.33806
0.336956
0.171189
0.156113
0.336701
0.338056
0.338062
0.338062
0.338062
0.338062
0.338062
0.338062
0.338062
0.338062
0.338062
0.338062
0.338062
0.338062
0.338062
0.338062
0.338062
0.338062
0.338062
0.338062
0.338062
0.338062
0.338062
0.338062
0.338062
0.338062
0.33806
0.336929
0.169786
0.15592
0.336615
0.338056
0.338062
0.338062
0.338062
0.338062
0.338062
0.338062
0.338062
0.338062
0.338062
0.338062
0.338062
0.338062
0.338062
0.338062
0.338062
0.338062
0.338062
0.338062
0.338062
0.338062
0.338062
0.338062
0.338062
0.338062
0.33806
0.336901
0.168512
0.155592
0.336605
0.338056
0.338062
0.338062
0.338062
0.338062
0.338062
0.338062
0.338062
0.338062
0.338062
0.338062
0.338062
0.338062
0.338062
0.338062
0.338062
0.338062
0.338062
0.338062
0.338062
0.338062
0.338062
0.338062
0.338062
0.338062
0.338059
0.336871
0.167293
0.155633
0.336619
0.338056
0.338062
0.338062
0.338062
0.338062
0.338062
0.338062
0.338062
0.338062
0.338062
0.338062
0.338062
0.338062
0.338062
0.338062
0.338062
0.338062
0.338062
0.338062
0.338062
0.338062
0.338062
0.338062
0.338062
0.338062
0.338059
0.336843
0.16614
0.156094
0.336638
0.338057
0.338062
0.338062
0.338062
0.338062
0.338062
0.338062
0.338062
0.338062
0.338062
0.338062
0.338062
0.338062
0.338062
0.338062
0.338062
0.338062
0.338062
0.338062
0.338062
0.338062
0.338062
0.338062
0.338062
0.338062
0.338059
0.336816
0.165073
0.156561
0.336647
0.338057
0.338062
0.338062
0.338062
0.338062
0.338062
0.338062
0.338062
0.338062
0.338062
0.338062
0.338062
0.338062
0.338062
0.338062
0.338062
0.338062
0.338062
0.338062
0.338062
0.338062
0.338062
0.338062
0.338062
0.338062
0.338059
0.336792
0.164103
0.156865
0.336646
0.338057
0.338062
0.338062
0.338062
0.338062
0.338062
0.338062
0.338062
0.338062
0.338062
0.338062
0.338062
0.338062
0.338062
0.338062
0.338062
0.338062
0.338062
0.338062
0.338062
0.338062
0.338062
0.338062
0.338062
0.338062
0.338059
0.336771
0.163227
0.156984
0.336641
0.338057
0.338062
0.338062
0.338062
0.338062
0.338062
0.338062
0.338062
0.338062
0.338062
0.338062
0.338062
0.338062
0.338062
0.338062
0.338062
0.338062
0.338062
0.338062
0.338062
0.338062
0.338062
0.338062
0.338062
0.338062
0.338059
0.33675
0.162432
0.156984
0.336636
0.338058
0.338062
0.338062
0.338062
0.338062
0.338062
0.338062
0.338062
0.338062
0.338062
0.338062
0.338062
0.338062
0.338062
0.338062
0.338062
0.338062
0.338062
0.338062
0.338062
0.338062
0.338062
0.338062
0.338062
0.338062
0.338059
0.336731
0.161708
0.156955
0.336631
0.338058
0.338062
0.338062
0.338062
0.338062
0.338062
0.338062
0.338062
0.338062
0.338062
0.338062
0.338062
0.338062
0.338062
0.338062
0.338062
0.338062
0.338062
0.338062
0.338062
0.338062
0.338062
0.338062
0.338062
0.338062
0.338059
0.336713
0.161048
0.156876
0.336628
0.338058
0.338062
0.338062
0.338062
0.338062
0.338062
0.338062
0.338062
0.338062
0.338062
0.338062
0.338062
0.338062
0.338062
0.338062
0.338062
0.338062
0.338062
0.338062
0.338062
0.338062
0.338062
0.338062
0.338062
0.338062
0.338059
0.336697
0.160446
0.156896
0.336626
0.338058
0.338062
0.338062
0.338062
0.338062
0.338062
0.338062
0.338062
0.338062
0.338062
0.338062
0.338062
0.338062
0.338062
0.338062
0.338062
0.338062
0.338062
0.338062
0.338062
0.338062
0.338062
0.338062
0.338062
0.338062
0.338059
0.336682
0.159904
0.156825
0.33662
0.338058
0.338062
0.338062
0.338062
0.338062
0.338062
0.338062
0.338062
0.338062
0.338062
0.338062
0.338062
0.338062
0.338062
0.338062
0.338062
0.338062
0.338062
0.338062
0.338062
0.338062
0.338062
0.338062
0.338062
0.338062
0.338059
0.336669
0.159418
0.156797
0.336619
0.338058
0.338062
0.338062
0.338062
0.338062
0.338062
0.338062
0.338062
0.338062
0.338062
0.338062
0.338062
0.338062
0.338062
0.338062
0.338062
0.338062
0.338062
0.338062
0.338062
0.338062
0.338062
0.338062
0.338062
0.338062
0.338059
0.336657
0.158983
0.156803
0.336617
0.338058
0.338062
0.338062
0.338062
0.338062
0.338062
0.338062
0.338062
0.338062
0.338062
0.338062
0.338062
0.338062
0.338062
0.338062
0.338062
0.338062
0.338062
0.338062
0.338062
0.338062
0.338062
0.338062
0.338062
0.338062
0.338059
0.336647
0.1586
0.156769
0.336614
0.338058
0.338062
0.338062
0.338062
0.338062
0.338062
0.338062
0.338062
0.338062
0.338062
0.338062
0.338062
0.338062
0.338062
0.338062
0.338062
0.338062
0.338062
0.338062
0.338062
0.338062
0.338062
0.338062
0.338062
0.338062
0.338058
0.336637
0.158266
0.156786
0.336614
0.338058
0.338062
0.338062
0.338062
0.338062
0.338062
0.338062
0.338062
0.338062
0.338062
0.338062
0.338062
0.338062
0.338062
0.338062
0.338062
0.338062
0.338062
0.338062
0.338062
0.338062
0.338062
0.338062
0.338062
0.338062
0.338058
0.336629
0.157977
0.15681
0.336613
0.338058
0.338062
0.338062
0.338062
0.338062
0.338062
0.338062
0.338062
0.338062
0.338062
0.338062
0.338062
0.338062
0.338062
0.338062
0.338062
0.338062
0.338062
0.338062
0.338062
0.338062
0.338062
0.338062
0.338062
0.338062
0.338058
0.336623
0.157734
0.156824
0.336612
0.338058
0.338062
0.338062
0.338062
0.338062
0.338062
0.338062
0.338062
0.338062
0.338062
0.338062
0.338062
0.338062
0.338062
0.338062
0.338062
0.338062
0.338062
0.338062
0.338062
0.338062
0.338062
0.338062
0.338062
0.338062
0.338058
0.336618
0.157531
0.15689
0.336614
0.338058
0.338062
0.338062
0.338062
0.338062
0.338062
0.338062
0.338062
0.338062
0.338062
0.338062
0.338062
0.338062
0.338062
0.338062
0.338062
0.338062
0.338062
0.338062
0.338062
0.338062
0.338062
0.338062
0.338062
0.338062
0.338058
0.336613
0.157367
0.156948
0.336614
0.338058
0.338062
0.338062
0.338062
0.338062
0.338062
0.338062
0.338062
0.338062
0.338062
0.338062
0.338062
0.338062
0.338062
0.338062
0.338062
0.338062
0.338062
0.338062
0.338062
0.338062
0.338062
0.338062
0.338062
0.338062
0.338058
0.33661
0.157241
0.157018
0.336742
0.338059
0.338062
0.338062
0.338062
0.338062
0.338062
0.338062
0.338062
0.338062
0.338062
0.338062
0.338062
0.338062
0.338062
0.338062
0.338062
0.338062
0.338062
0.338062
0.338062
0.338062
0.338062
0.338062
0.338062
0.338062
0.338058
0.336609
0.157148
0.174648
0.33711
0.338085
0.338088
0.338088
0.338088
0.338089
0.338089
0.33809
0.33809
0.338091
0.338091
0.338092
0.338092
0.338093
0.338093
0.338094
0.338094
0.338095
0.338095
0.338096
0.338096
0.338097
0.338098
0.338098
0.338099
0.3381
0.338083
0.335099
0.153812
0.172842
0.336991
0.33806
0.338063
0.338063
0.338063
0.338063
0.338063
0.338063
0.338063
0.338063
0.338063
0.338063
0.338063
0.338063
0.338063
0.338063
0.338063
0.338063
0.338063
0.338063
0.338063
0.338063
0.338063
0.338063
0.338063
0.338063
0.338052
0.336222
0.145403
0.171186
0.336956
0.33806
0.338062
0.338062
0.338062
0.338062
0.338062
0.338062
0.338062
0.338062
0.338062
0.338062
0.338062
0.338062
0.338062
0.338062
0.338062
0.338062
0.338062
0.338062
0.338062
0.338062
0.338062
0.338062
0.338062
0.338062
0.338055
0.336723
0.152151
0.169786
0.336929
0.33806
0.338062
0.338062
0.338062
0.338062
0.338062
0.338062
0.338062
0.338062
0.338062
0.338062
0.338062
0.338062
0.338062
0.338062
0.338062
0.338062
0.338062
0.338062
0.338062
0.338062
0.338062
0.338062
0.338062
0.338062
0.338056
0.336703
0.156164
0.168512
0.336901
0.33806
0.338062
0.338062
0.338062
0.338062
0.338062
0.338062
0.338062
0.338062
0.338062
0.338062
0.338062
0.338062
0.338062
0.338062
0.338062
0.338062
0.338062
0.338062
0.338062
0.338062
0.338062
0.338062
0.338062
0.338062
0.338056
0.336613
0.155941
0.167292
0.336871
0.338059
0.338062
0.338062
0.338062
0.338062
0.338062
0.338062
0.338062
0.338062
0.338062
0.338062
0.338062
0.338062
0.338062
0.338062
0.338062
0.338062
0.338062
0.338062
0.338062
0.338062
0.338062
0.338062
0.338062
0.338062
0.338056
0.336605
0.15552
0.166141
0.336843
0.338059
0.338062
0.338062
0.338062
0.338062
0.338062
0.338062
0.338062
0.338062
0.338062
0.338062
0.338062
0.338062
0.338062
0.338062
0.338062
0.338062
0.338062
0.338062
0.338062
0.338062
0.338062
0.338062
0.338062
0.338062
0.338056
0.336622
0.155729
0.165074
0.336816
0.338059
0.338062
0.338062
0.338062
0.338062
0.338062
0.338062
0.338062
0.338062
0.338062
0.338062
0.338062
0.338062
0.338062
0.338062
0.338062
0.338062
0.338062
0.338062
0.338062
0.338062
0.338062
0.338062
0.338062
0.338062
0.338057
0.336635
0.156041
0.164103
0.336792
0.338059
0.338062
0.338062
0.338062
0.338062
0.338062
0.338062
0.338062
0.338062
0.338062
0.338062
0.338062
0.338062
0.338062
0.338062
0.338062
0.338062
0.338062
0.338062
0.338062
0.338062
0.338062
0.338062
0.338062
0.338062
0.338057
0.336648
0.156567
0.163227
0.336771
0.338059
0.338062
0.338062
0.338062
0.338062
0.338062
0.338062
0.338062
0.338062
0.338062
0.338062
0.338062
0.338062
0.338062
0.338062
0.338062
0.338062
0.338062
0.338062
0.338062
0.338062
0.338062
0.338062
0.338062
0.338062
0.338057
0.336646
0.156888
0.162431
0.33675
0.338059
0.338062
0.338062
0.338062
0.338062
0.338062
0.338062
0.338062
0.338062
0.338062
0.338062
0.338062
0.338062
0.338062
0.338062
0.338062
0.338062
0.338062
0.338062
0.338062
0.338062
0.338062
0.338062
0.338062
0.338062
0.338057
0.33664
0.156932
0.161707
0.336731
0.338059
0.338062
0.338062
0.338062
0.338062
0.338062
0.338062
0.338062
0.338062
0.338062
0.338062
0.338062
0.338062
0.338062
0.338062
0.338062
0.338062
0.338062
0.338062
0.338062
0.338062
0.338062
0.338062
0.338062
0.338062
0.338058
0.336638
0.157026
0.161048
0.336713
0.338059
0.338062
0.338062
0.338062
0.338062
0.338062
0.338062
0.338062
0.338062
0.338062
0.338062
0.338062
0.338062
0.338062
0.338062
0.338062
0.338062
0.338062
0.338062
0.338062
0.338062
0.338062
0.338062
0.338062
0.338062
0.338058
0.33663
0.156948
0.160446
0.336697
0.338059
0.338062
0.338062
0.338062
0.338062
0.338062
0.338062
0.338062
0.338062
0.338062
0.338062
0.338062
0.338062
0.338062
0.338062
0.338062
0.338062
0.338062
0.338062
0.338062
0.338062
0.338062
0.338062
0.338062
0.338062
0.338058
0.336627
0.15687
0.159903
0.336682
0.338059
0.338062
0.338062
0.338062
0.338062
0.338062
0.338062
0.338062
0.338062
0.338062
0.338062
0.338062
0.338062
0.338062
0.338062
0.338062
0.338062
0.338062
0.338062
0.338062
0.338062
0.338062
0.338062
0.338062
0.338062
0.338058
0.336626
0.156892
0.159418
0.336669
0.338059
0.338062
0.338062
0.338062
0.338062
0.338062
0.338062
0.338062
0.338062
0.338062
0.338062
0.338062
0.338062
0.338062
0.338062
0.338062
0.338062
0.338062
0.338062
0.338062
0.338062
0.338062
0.338062
0.338062
0.338062
0.338058
0.336621
0.156839
0.158983
0.336657
0.338059
0.338062
0.338062
0.338062
0.338062
0.338062
0.338062
0.338062
0.338062
0.338062
0.338062
0.338062
0.338062
0.338062
0.338062
0.338062
0.338062
0.338062
0.338062
0.338062
0.338062
0.338062
0.338062
0.338062
0.338062
0.338058
0.336619
0.156784
0.1586
0.336646
0.338059
0.338062
0.338062
0.338062
0.338062
0.338062
0.338062
0.338062
0.338062
0.338062
0.338062
0.338062
0.338062
0.338062
0.338062
0.338062
0.338062
0.338062
0.338062
0.338062
0.338062
0.338062
0.338062
0.338062
0.338062
0.338058
0.336618
0.1568
0.158267
0.336637
0.338058
0.338062
0.338062
0.338062
0.338062
0.338062
0.338062
0.338062
0.338062
0.338062
0.338062
0.338062
0.338062
0.338062
0.338062
0.338062
0.338062
0.338062
0.338062
0.338062
0.338062
0.338062
0.338062
0.338062
0.338062
0.338058
0.336614
0.156787
0.157978
0.336629
0.338058
0.338062
0.338062
0.338062
0.338062
0.338062
0.338062
0.338062
0.338062
0.338062
0.338062
0.338062
0.338062
0.338062
0.338062
0.338062
0.338062
0.338062
0.338062
0.338062
0.338062
0.338062
0.338062
0.338062
0.338062
0.338058
0.336613
0.156771
0.157733
0.336623
0.338058
0.338062
0.338062
0.338062
0.338062
0.338062
0.338062
0.338062
0.338062
0.338062
0.338062
0.338062
0.338062
0.338062
0.338062
0.338062
0.338062
0.338062
0.338062
0.338062
0.338062
0.338062
0.338062
0.338062
0.338062
0.338058
0.336614
0.156807
0.157531
0.336618
0.338058
0.338062
0.338062
0.338062
0.338062
0.338062
0.338062
0.338062
0.338062
0.338062
0.338062
0.338062
0.338062
0.338062
0.338062
0.338062
0.338062
0.338062
0.338062
0.338062
0.338062
0.338062
0.338062
0.338062
0.338062
0.338058
0.336612
0.156842
0.157367
0.336613
0.338058
0.338062
0.338062
0.338062
0.338062
0.338062
0.338062
0.338062
0.338062
0.338062
0.338062
0.338062
0.338062
0.338062
0.338062
0.338062
0.338062
0.338062
0.338062
0.338062
0.338062
0.338062
0.338062
0.338062
0.338062
0.338058
0.336613
0.156875
0.15724
0.33661
0.338058
0.338062
0.338062
0.338062
0.338062
0.338062
0.338062
0.338062
0.338062
0.338062
0.338062
0.338062
0.338062
0.338062
0.338062
0.338062
0.338062
0.338062
0.338062
0.338062
0.338062
0.338062
0.338062
0.338062
0.338062
0.338058
0.336615
0.156949
0.157148
0.336609
0.338058
0.338062
0.338062
0.338062
0.338062
0.338062
0.338062
0.338062
0.338062
0.338062
0.338062
0.338062
0.338062
0.338062
0.338062
0.338062
0.338062
0.338062
0.338062
0.338062
0.338062
0.338062
0.338062
0.338062
0.338062
0.338059
0.336742
0.15702
0.12802
0.128254
0.128489
0.128724
0.128959
0.129193
0.129428
0.129663
0.129898
0.130132
0.130367
0.130602
0.130837
0.131072
0.131306
0.131541
0.131776
0.132011
0.132245
0.13248
0.132715
0.13295
0.133184
0.133419
0.133654
0.133889
0.134123
0.134358
0.134593
0.134828
0.135062
0.135297
0.135532
0.135767
0.136002
0.136236
0.136471
0.136706
0.136941
0.137175
0.13741
0.137645
0.13788
0.138114
0.138349
0.138584
0.138819
0.139054
0.139288
0.139523
0.139758
0.139993
0.140227
0.140462
0.140697
0.140932
0.141166
0.141401
0.141636
0.141871
0.142106
0.14234
0.142575
0.14281
0.143045
0.143279
0.143514
0.143749
0.143984
0.144218
0.144453
0.144688
0.144923
0.145158
0.145392
0.145627
0.145862
0.146097
0.146331
0.146566
0.146801
0.147036
0.147271
0.147505
0.14774
0.147975
0.14821
0.148444
0.148679
0.148914
0.149149
0.149383
0.149618
0.149853
0.150088
0.150323
0.150557
0.150792
0.151027
0.151262
0.151496
0.151731
0.151966
0.152201
0.152436
0.15267
0.152905
0.15314
0.153375
0.153609
0.153844
0.154079
0.154314
0.154549
0.154783
0.155018
0.155253
0.155488
0.155723
0.155957
0.156192
0.156427
0.156662
0.156896
0.157131
0.335152
0.335176
0.335193
0.33521
0.335227
0.335244
0.33526
0.335277
0.335293
0.335309
0.335325
0.335341
0.335357
0.335373
0.335388
0.335404
0.335419
0.335435
0.33545
0.335465
0.33548
0.335495
0.335509
0.335524
0.335539
0.335553
0.335568
0.335582
0.335596
0.33561
0.335624
0.335638
0.335652
0.335665
0.335679
0.335693
0.335706
0.335719
0.335733
0.335746
0.335759
0.335772
0.335785
0.335797
0.33581
0.335823
0.335835
0.335848
0.33586
0.335872
0.335885
0.335897
0.335909
0.335921
0.335933
0.335945
0.335956
0.335968
0.335979
0.335991
0.336002
0.336014
0.336025
0.336036
0.336047
0.336058
0.336069
0.33608
0.336091
0.336102
0.336113
0.336123
0.336134
0.336144
0.336155
0.336165
0.336175
0.336186
0.336196
0.336206
0.336216
0.336226
0.336236
0.336246
0.336255
0.336265
0.336275
0.336284
0.336294
0.336303
0.336313
0.336322
0.336332
0.336341
0.33635
0.336359
0.336368
0.336377
0.336386
0.336395
0.336404
0.336413
0.336421
0.33643
0.336439
0.336447
0.336456
0.336464
0.336473
0.336481
0.336489
0.336498
0.336506
0.336514
0.336522
0.33653
0.336538
0.336546
0.336554
0.336562
0.33657
0.336577
0.336585
0.336593
0.336602
0.33805
0.33805
0.338051
0.338051
0.338051
0.338051
0.338051
0.338051
0.338051
0.338051
0.338051
0.338052
0.338052
0.338052
0.338052
0.338052
0.338052
0.338052
0.338052
0.338052
0.338052
0.338052
0.338053
0.338053
0.338053
0.338053
0.338053
0.338053
0.338053
0.338053
0.338053
0.338053
0.338053
0.338054
0.338054
0.338054
0.338054
0.338054
0.338054
0.338054
0.338054
0.338054
0.338054
0.338054
0.338054
0.338054
0.338055
0.338055
0.338055
0.338055
0.338055
0.338055
0.338055
0.338055
0.338055
0.338055
0.338055
0.338055
0.338055
0.338055
0.338055
0.338055
0.338056
0.338056
0.338056
0.338056
0.338056
0.338056
0.338056
0.338056
0.338056
0.338056
0.338056
0.338056
0.338056
0.338056
0.338056
0.338056
0.338056
0.338056
0.338057
0.338057
0.338057
0.338057
0.338057
0.338057
0.338057
0.338057
0.338057
0.338057
0.338057
0.338057
0.338057
0.338057
0.338057
0.338057
0.338057
0.338057
0.338057
0.338057
0.338057
0.338057
0.338058
0.338058
0.338058
0.338058
0.338058
0.338058
0.338058
0.338058
0.338058
0.338058
0.338058
0.338058
0.338058
0.338058
0.338058
0.338058
0.338058
0.338058
0.338058
0.338058
0.338058
0.338058
0.338058
0.338062
0.338062
0.338062
0.338062
0.338062
0.338062
0.338062
0.338062
0.338062
0.338062
0.338062
0.338062
0.338062
0.338062
0.338062
0.338062
0.338062
0.338062
0.338062
0.338062
0.338062
0.338062
0.338062
0.338062
0.338062
0.338062
0.338062
0.338062
0.338062
0.338062
0.338062
0.338062
0.338062
0.338062
0.338062
0.338062
0.338062
0.338062
0.338062
0.338062
0.338062
0.338062
0.338062
0.338062
0.338062
0.338062
0.338062
0.338062
0.338062
0.338062
0.338062
0.338062
0.338062
0.338062
0.338062
0.338062
0.338062
0.338062
0.338062
0.338062
0.338062
0.338062
0.338062
0.338062
0.338062
0.338062
0.338062
0.338062
0.338062
0.338062
0.338062
0.338062
0.338062
0.338062
0.338062
0.338062
0.338062
0.338062
0.338062
0.338062
0.338062
0.338062
0.338062
0.338062
0.338062
0.338062
0.338062
0.338062
0.338062
0.338062
0.338062
0.338062
0.338062
0.338062
0.338062
0.338062
0.338062
0.338062
0.338062
0.338062
0.338062
0.338062
0.338062
0.338062
0.338062
0.338062
0.338062
0.338062
0.338062
0.338062
0.338062
0.338062
0.338062
0.338062
0.338062
0.338062
0.338062
0.338062
0.338062
0.338062
0.338062
0.338062
0.338062
0.338062
0.338062
0.338062
0.338062