/*--------------------------------*- C++ -*----------------------------------*\
| =========                 |                                                 |
| \\      /  F ield         | OpenFOAM: The Open Source CFD Toolbox           |
|  \\    /   O peration     | Version:  2112                                  |
|   \\  /    A nd           | Website:  www.openfoam.com                      |
|    \\/     M anipulation  |                                                 |
\*---------------------------------------------------------------------------*/
FoamFile
{
    version     2.0;
    format      ascii;
    arch        "LSB;label=32;scalar=64";
    class       surfaceScalarField;
    location    "4e-05";
    object      phi;
}
// * * * * * * * * * * * * * * * * * * * * * * * * * * * * * * * * * * * * * //

dimensions      [1 0 -1 0 0 0 0];

oriented        oriented;

internalField   nonuniform List<scalar> 
27436
(
-1.07031
8.12889
-0.676841
7.28182
-0.344094
7.24131
-0.185781
7.30739
-0.109821
7.3322
-0.0732547
7.34212
-0.0531597
7.3458
-0.0390569
7.34711
-0.0268729
7.34759
-0.0152441
7.34778
-0.00377211
7.34786
0.00765741
7.3479
0.0190791
7.34791
0.0305041
7.34791
0.0419816
7.3479
0.0536274
7.34782
0.0658374
7.34758
0.0799508
7.34702
0.0999828
7.34564
0.136312
7.34196
0.211824
7.33215
0.369683
7.30748
0.701151
7.24209
1.09323
7.2866
8.17298
-0.506408
7.89603
-0.343127
7.13314
-0.19214
7.39349
-0.109624
7.64319
-0.0697491
7.73523
-0.0495472
7.76707
-0.0373409
7.77769
-0.0279083
7.78057
-0.0193345
7.78117
-0.0109974
7.78133
-0.00272528
7.78141
0.00552874
7.78142
0.0137792
7.78144
0.0220323
7.78146
0.0303049
7.78147
0.038654
7.7816
0.0472618
7.78174
0.0567214
7.78123
0.068903
7.77823
0.0889879
7.76743
0.128577
7.73544
0.210764
7.64303
0.361994
7.38916
0.526813
7.13119
7.89885
-0.14601
7.41301
-0.12595
6.89916
-0.141506
7.03398
-0.127142
7.09427
-0.108805
7.11915
-0.0945297
7.12789
-0.0824543
7.13097
-0.0712415
7.13196
-0.0603255
7.13219
-0.0495147
7.13233
-0.0387244
7.13247
-0.0279367
7.13246
-0.0171527
7.13244
-0.00636515
7.13246
0.00442905
7.13244
0.0152565
7.13239
0.0261798
7.13228
0.0374101
7.13196
0.0495052
7.13093
0.0637479
7.12777
0.0819843
7.11894
0.096162
7.09403
0.0737314
7.03743
0.102701
6.89355
7.39323
0.0836752
6.05218
0.0180448
5.93358
-0.0664254
5.9493
-0.0755699
5.88759
-0.069625
5.87399
-0.0611909
5.87131
-0.0526115
5.87091
-0.0441114
5.87103
-0.0356625
5.87111
-0.0272448
5.87124
-0.0188327
5.87138
-0.0104206
5.87136
-0.00201469
5.87134
0.00639387
5.87134
0.0148027
5.87131
0.0232256
5.87123
0.0316701
5.8711
0.0401678
5.87094
0.0487392
5.87079
0.0571399
5.87106
0.0629707
5.87357
0.0536361
5.88721
-0.0289735
5.95054
-0.102393
5.93203
6.03493
0.0207315
1.96556
0.00304959
1.93324
-0.0177386
1.95237
-0.018959
1.9438
-0.0173351
1.94238
-0.0147044
1.94235
-0.0119313
1.94246
-0.0091587
1.94253
-0.0063845
1.94257
-0.00360567
1.94261
-0.000835736
1.94261
0.0019319
1.94259
0.00469643
1.94256
0.00746194
1.94253
0.0102269
1.9425
0.0129955
1.94245
0.0157634
1.94239
0.0185322
1.94231
0.0212994
1.94221
0.0239291
1.94206
0.0255021
1.942
0.0240204
1.94342
0.00644005
1.95249
-0.0116253
1.93245
1.95883
-0.0037665
0.101301
-0.00236936
0.107874
-0.00190704
0.110806
-0.0015917
0.110687
-0.00139135
0.110677
-0.00113788
0.110687
-0.000879714
0.110692
-0.000622217
0.110695
-0.000364117
0.110697
-0.000105723
0.110698
0.000151842
0.110696
0.000409108
0.110693
0.000666036
0.11069
0.000923155
0.110687
0.00118022
0.110684
0.00143755
0.11068
0.0016945
0.110675
0.00195128
0.11067
0.00220892
0.110665
0.00246268
0.110658
0.00265854
0.110644
0.00294871
0.110652
0.00350538
0.110809
0.00496763
0.107793
0.100883
2.10397e-05
0.0190231
3.52461e-06
0.0194114
-6.15385e-05
0.0195096
-0.000104928
0.019507
-0.000144218
0.0195066
-0.000183203
0.0195066
-0.000222227
0.0195067
-0.000261269
0.0195068
-0.000300296
0.0195069
-0.000339324
0.0195069
-0.000378358
0.0195069
-0.000417392
0.0195069
-0.00045643
0.0195068
-0.000495464
0.0195068
-0.0005345
0.0195067
-0.000573528
0.0195067
-0.00061256
0.0195066
-0.000651598
0.0195065
-0.000690614
0.0195065
-0.000729571
0.0195064
-0.000768751
0.0195064
-0.000811973
0.0195068
-0.000859252
0.0195095
-0.000724615
0.0194017
0.0189232
0.000622279
0.0175759
0.000701666
0.0180138
0.000669747
0.0180528
0.000612363
0.0180554
0.000553432
0.0180556
0.000494331
0.0180556
0.000435218
0.0180557
0.000376104
0.0180557
0.00031699
0.0180557
0.000257876
0.0180557
0.000198762
0.0180557
0.000139648
0.0180556
8.05339e-05
0.0180556
2.14198e-05
0.0180556
-3.76943e-05
0.0180556
-9.68082e-05
0.0180556
-0.000155922
0.0180556
-0.000215036
0.0180556
-0.00027415
0.0180556
-0.000333254
0.0180556
-0.000392235
0.0180556
-0.000450104
0.0180554
-0.000488869
0.0180525
-0.000445613
0.0180127
0.0175424
0.00023593
0.0158943
0.000186216
0.0176415
0.000162476
0.0179756
0.000160585
0.0180136
0.000161579
0.0180171
0.000162864
0.0180173
0.000164173
0.0180173
0.000165485
0.0180173
0.000166796
0.0180173
0.000168107
0.0180173
0.000169419
0.0180173
0.00017073
0.0180173
0.000172042
0.0180173
0.000173353
0.0180173
0.000174665
0.0180173
0.000175976
0.0180173
0.000177288
0.0180173
0.000178599
0.0180173
0.000179908
0.0180173
0.000181184
0.0180173
0.000182072
0.0180171
0.000178899
0.0180137
0.000134908
0.0179766
5.75416e-05
0.017649
0.0159782
-0.00560766
0.0158766
-0.00673419
0.0165776
-0.00654915
0.0172376
-0.00591834
0.0173227
-0.00524092
0.0173326
-0.00455864
0.0173334
-0.00387594
0.0173335
-0.0031932
0.0173335
-0.00251047
0.0173335
-0.00182774
0.0173335
-0.001145
0.0173335
-0.000462267
0.0173335
0.000220467
0.0173335
0.000903201
0.0173335
0.00158593
0.0173335
0.00226867
0.0173335
0.0029514
0.0173335
0.00363413
0.0173335
0.00431684
0.0173335
0.00499912
0.0173334
0.00567657
0.0173324
0.00630796
0.0173216
0.00650248
0.0172247
0.00542177
0.0164902
0.0157121
-0.00763604
0.0150126
-0.00953449
0.0152761
-0.00945281
0.0161687
-0.00852946
0.0162813
-0.00750624
0.0162966
-0.00647197
0.0162979
-0.00543665
0.016298
-0.00440126
0.0162981
-0.00336585
0.0162981
-0.00233045
0.0162981
-0.00129505
0.0162981
-0.000259648
0.0162981
0.000775755
0.0162981
0.00181116
0.0162981
0.00284656
0.0162981
0.00388196
0.0162981
0.00491736
0.0162981
0.00595276
0.0162981
0.00698806
0.016298
0.00802222
0.0162979
0.00904429
0.0162965
0.00995803
0.0162809
0.00997856
0.0161654
0.00792807
0.0152448
0.0150574
-0.00794694
0.0139606
-0.0102401
0.0139876
-0.0103901
0.0150223
-0.00944099
0.0151585
-0.00834427
0.0151794
-0.0072299
0.0151815
-0.0061137
0.0151817
-0.00499734
0.0151817
-0.00388097
0.0151817
-0.0027646
0.0151817
-0.00164822
0.0151817
-0.000531852
0.0151817
0.00058452
0.0151817
0.00170089
0.0151817
0.00281726
0.0151817
0.00393364
0.0151817
0.00505001
0.0151817
0.00616637
0.0151817
0.00728257
0.0151817
0.00839699
0.0151815
0.00949403
0.0151796
0.0104448
0.0151598
0.0102953
0.0150305
0.00800142
0.014018
0.0140547
-0.00763899
0.013063
-0.0101622
0.0128808
-0.0105324
0.0138936
-0.00962467
0.01403
-0.00852653
0.0140534
-0.00740397
0.0140558
-0.00627867
0.0140561
-0.00515311
0.0140561
-0.00402752
0.0140561
-0.00290194
0.0140561
-0.00177636
0.0140561
-0.000650772
0.0140561
0.000474812
0.0140561
0.0016004
0.0140561
0.00272598
0.0140561
0.00385156
0.0140561
0.00497715
0.0140561
0.00610271
0.0140561
0.00722804
0.0140561
0.00835084
0.0140559
0.00945091
0.0140538
0.010371
0.0140336
0.0100533
0.0139149
0.00762303
0.0130031
0.0134044
-0.00702923
0.012615
-0.00959328
0.0120631
-0.0101384
0.0128706
-0.00933859
0.0129827
-0.00832225
0.0130038
-0.00727648
0.0130061
-0.00622714
0.0130063
-0.00517745
0.0130064
-0.00412772
0.0130064
-0.00307799
0.0130064
-0.00202825
0.0130064
-0.000978523
0.0130064
7.12079e-05
0.0130064
0.00112094
0.0130064
0.00217067
0.0130064
0.0032204
0.0130064
0.00427013
0.0130064
0.00531983
0.0130064
0.00636922
0.0130063
0.00741547
0.0130061
0.00843554
0.0130035
0.0092613
0.0129804
0.00884026
0.0128561
0.00651127
0.0120029
0.0120272
-0.00565141
0.011298
-0.0079466
0.0111853
-0.00851215
0.0119064
-0.00779657
0.0120135
-0.00686361
0.0120349
-0.00589945
0.0120374
-0.00493127
0.0120377
-0.00396266
0.0120377
-0.002994
0.0120377
-0.00202534
0.0120377
-0.00105668
0.0120377
-8.80128e-05
0.0120377
0.00088065
0.0120377
0.00184931
0.0120377
0.00281797
0.0120377
0.00378664
0.0120377
0.00475529
0.0120377
0.0057239
0.0120377
0.00669195
0.0120377
0.00765506
0.0120373
0.00858085
0.0120342
0.00925602
0.0120082
0.00854126
0.0118803
0.00599448
0.011056
0.0111377
-0.0054146
0.0116606
-0.00774757
0.0107076
-0.00844525
0.0110258
-0.00778217
0.0110584
-0.00686009
0.011068
-0.00589792
0.011069
-0.00493012
0.0110692
-0.00396167
0.0110692
-0.00299314
0.0110692
-0.00202461
0.0110692
-0.00105608
0.0110692
-8.75463e-05
0.0110692
0.000880986
0.0110692
0.00184952
0.0110692
0.00281805
0.0110692
0.00378658
0.0110692
0.0047551
0.0110692
0.00572355
0.0110692
0.00669123
0.0110692
0.00765253
0.011069
0.00856886
0.0110681
0.0091984
0.0110588
0.00835913
0.0110317
0.0057787
0.0107089
0.0118173
-0.00350605
0.0114871
-0.00510185
0.0105576
-0.00563564
0.0104918
-0.00522604
0.0104631
-0.00464748
0.010461
-0.00404307
0.0104606
-0.00343493
0.0104605
-0.00282633
0.0104605
-0.00221769
0.0104605
-0.00160904
0.0104605
-0.00100039
0.0104605
-0.000391735
0.0104605
0.000216916
0.0104605
0.000825567
0.0104605
0.00143422
0.0104605
0.00204287
0.0104605
0.00265151
0.0104605
0.00326012
0.0104605
0.0038683
0.0104605
0.00447302
0.0104606
0.00505352
0.0104611
0.00547257
0.0104642
0.00496525
0.0104994
0.00341696
0.0105995
0.0114787
-0.00109948
0.0116669
-0.00154499
0.0105838
-0.00171071
0.0103761
-0.00163043
0.0103373
-0.00150775
0.0103311
-0.00137848
0.0103303
-0.00124824
0.0103302
-0.00111788
0.0103301
-0.00098751
0.0103301
-0.000857135
0.0103301
-0.00072676
0.0103301
-0.000596386
0.0103301
-0.000466011
0.0103301
-0.000335636
0.0103301
-0.000205262
0.0103301
-7.4887e-05
0.0103301
5.54867e-05
0.0103301
0.000185852
0.0103301
0.000316142
0.0103302
0.000445838
0.0103302
0.000571557
0.0103305
0.000671703
0.0103325
0.000631898
0.0103491
0.000467463
0.0104279
0.0113936
0.004092
0.0108429
0.00579213
0.0103465
0.00636044
0.0108602
0.00592652
0.010943
0.00532292
0.0109611
0.0046937
0.0109633
0.00406075
0.0109636
0.00342733
0.0109636
0.00279387
0.0109636
0.0021604
0.0109636
0.00152693
0.0109636
0.000893463
0.0109636
0.000259993
0.0109636
-0.000373476
0.0109636
-0.00100695
0.0109636
-0.00164041
0.0109636
-0.00227388
0.0109636
-0.0029073
0.0109636
-0.00354037
0.0109636
-0.00417045
0.0109634
-0.00477965
0.0109615
-0.00524628
0.0109454
-0.00483942
0.0108747
-0.00344976
0.0104135
0.0110757
0.00575238
0.0104538
0.00859645
0.0108157
0.00960405
0.0118024
0.00891389
0.011999
0.00789713
0.0120357
0.00682819
0.0120405
0.00575168
0.0120411
0.00467426
0.0120411
0.00359675
0.0120411
0.00251922
0.0120411
0.00144169
0.0120411
0.000364161
0.0120411
-0.000713368
0.0120411
-0.0017909
0.0120411
-0.00286842
0.0120411
-0.00394595
0.0120411
-0.00502347
0.0120411
-0.00610089
0.0120411
-0.00717736
0.0120411
-0.00824606
0.0120405
-0.00926128
0.0120353
-0.0099412
0.0119956
-0.00887518
0.0117871
-0.00594022
0.0107402
0.0104424
0.0058008
0.0115908
0.00850054
0.0120096
0.00927006
0.0128996
0.00853205
0.0130599
0.00752857
0.0130871
0.00648502
0.0130904
0.00543608
0.0130907
0.00438655
0.0130907
0.00333695
0.0130907
0.00228735
0.0130907
0.00123775
0.0130907
0.000188154
0.0130907
-0.000861445
0.0130907
-0.00191104
0.0130907
-0.00296064
0.0130907
-0.00401024
0.0130907
-0.00505983
0.0130907
-0.00610936
0.0130907
-0.00715818
0.0130907
-0.00820084
0.0130903
-0.00919816
0.0130865
-0.00990059
0.0130553
-0.00898033
0.0128742
-0.0060429
0.0119029
0.0113394
0.00604945
0.0127555
0.00840082
0.0131904
0.00885433
0.0139186
0.00810106
0.0140358
0.00716507
0.0140533
0.00620382
0.0140552
0.00523949
0.0140554
0.00427486
0.0140554
0.00331019
0.0140554
0.00234552
0.0140554
0.00138086
0.0140554
0.000416188
0.0140554
-0.000548479
0.0140554
-0.00151315
0.0140554
-0.00247781
0.0140554
-0.00344248
0.0140554
-0.00440715
0.0140554
-0.00537178
0.0140554
-0.00633608
0.0140554
-0.00729705
0.0140552
-0.00823106
0.0140532
-0.0089729
0.0140352
-0.00847629
0.0139158
-0.00605524
0.013188
0.0126639
0.00598281
0.0138073
0.00796382
0.014261
0.00818409
0.0148188
0.00747
0.0148977
0.00663355
0.0149082
0.00578156
0.0149092
0.00492785
0.0149093
0.00407398
0.0149093
0.0032201
0.0149093
0.00236622
0.0149093
0.00151233
0.0149093
0.000658451
0.0149093
-0.000195432
0.0149093
-0.00104931
0.0149093
-0.0019032
0.0149093
-0.00275708
0.0149093
-0.00361096
0.0149093
-0.00446483
0.0149093
-0.00531856
0.0149093
-0.00617067
0.0149092
-0.00700821
0.0149083
-0.00773078
0.0148985
-0.00756661
0.0148247
-0.0057212
0.0142965
0.0139428
0.00553667
0.0149656
0.0070643
0.015184
0.00707588
0.0156138
0.0063989
0.0156667
0.00564466
0.015673
0.00488135
0.0156735
0.00411714
0.0156736
0.00335285
0.0156736
0.00258855
0.0156736
0.00182425
0.0156736
0.00105995
0.0156736
0.000295657
0.0156736
-0.00046864
0.0156736
-0.00123294
0.0156736
-0.00199724
0.0156736
-0.00276153
0.0156736
-0.00352583
0.0156736
-0.00429012
0.0156736
-0.00505434
0.0156736
-0.00581764
0.0156735
-0.00657185
0.015673
-0.00724833
0.0156665
-0.00722729
0.0156125
-0.00566552
0.0151723
0.0149429
0.00579436
0.0157058
0.00719848
0.0159895
0.00710662
0.0163857
0.00641244
0.0164303
0.00565783
0.0164351
0.00489653
0.0164355
0.00413461
0.0164356
0.00337264
0.0164356
0.00261067
0.0164356
0.00184869
0.0164356
0.00108672
0.0164356
0.000324746
0.0164356
-0.000437227
0.0164356
-0.0011992
0.0164356
-0.00196117
0.0164356
-0.00272315
0.0164356
-0.00348512
0.0164356
-0.00424709
0.0164356
-0.00500901
0.0164356
-0.00577028
0.0164355
-0.00652468
0.0164351
-0.00721702
0.0164303
-0.00729671
0.0163857
-0.00585725
0.0159895
0.0156453
0.00570768
0.0164407
0.00698242
0.0167648
0.00684025
0.0171055
0.00618444
0.0171408
0.00548088
0.0171444
0.00477224
0.0171447
0.00406315
0.0171447
0.00335404
0.0171447
0.00264492
0.0171447
0.0019358
0.0171447
0.00122668
0.0171447
0.000517562
0.0171447
-0.000191556
0.0171447
-0.000900675
0.0171447
-0.00160979
0.0171447
-0.00231891
0.0171447
-0.00302803
0.0171447
-0.00373715
0.0171447
-0.00444623
0.0171447
-0.0051549
0.0171447
-0.00585879
0.0171444
-0.00651745
0.0171409
-0.00668369
0.0171065
-0.00549087
0.0167731
0.016568
0.00531866
0.0173115
0.00635243
0.0175045
0.00612966
0.0177907
0.00549254
0.017818
0.00482032
0.0178206
0.00414453
0.0178208
0.00346845
0.0178208
0.00279234
0.0178208
0.00211624
0.0178208
0.00144013
0.0178208
0.000764023
0.0178208
8.79173e-05
0.0178208
-0.000588189
0.0178208
-0.00126429
0.0178208
-0.0019404
0.0178208
-0.00261651
0.0178208
-0.00329261
0.0178208
-0.00396872
0.0178208
-0.0046448
0.0178208
-0.00532056
0.0178208
-0.00599249
0.0178206
-0.00662684
0.0178177
-0.00682113
0.0177882
-0.00567757
0.0174823
0.0171675
0.00547306
0.017906
0.00646019
0.0181786
0.00621406
0.0184449
0.00559613
0.0184689
0.00494882
0.0184711
0.00429861
0.0184712
0.00364818
0.0184712
0.00299773
0.0184712
0.00234728
0.0184712
0.00169683
0.0184712
0.00104638
0.0184712
0.00039593
0.0184712
-0.00025452
0.0184712
-0.00090497
0.0184712
-0.00155542
0.0184712
-0.00220587
0.0184712
-0.00285632
0.0184712
-0.00350677
0.0184712
-0.0041572
0.0184712
-0.00480741
0.0184712
-0.0054547
0.0184711
-0.00607246
0.0184691
-0.0063212
0.0184464
-0.00534985
0.0181938
0.0178857
0.00529203
0.0184618
0.00620051
0.0188312
0.00594993
0.0190512
0.00537656
0.0190698
0.00477879
0.0190714
0.00417868
0.0190715
0.00357838
0.0190715
0.00297808
0.0190715
0.00237778
0.0190715
0.00177747
0.0190715
0.00117717
0.0190715
0.000576864
0.0190715
-2.34399e-05
0.0190715
-0.000623744
0.0190715
-0.00122405
0.0190715
-0.00182435
0.0190715
-0.00242466
0.0190715
-0.00302496
0.0190715
-0.00362525
0.0190715
-0.00422539
0.0190715
-0.00482343
0.0190714
-0.00539961
0.0190699
-0.00567917
0.0190525
-0.00489683
0.0188446
0.018665
0.00442567
0.0192837
0.00506433
0.0194412
0.00477834
0.0196043
0.0042503
0.0196171
0.00370537
0.0196181
0.00315885
0.0196182
0.00261223
0.0196182
0.0020656
0.0196182
0.00151897
0.0196182
0.000972335
0.0196182
0.000425704
0.0196182
-0.000120928
0.0196182
-0.00066756
0.0196182
-0.00121419
0.0196182
-0.00176082
0.0196182
-0.00230745
0.0196182
-0.00285409
0.0196182
-0.00340072
0.0196182
-0.00394734
0.0196182
-0.00449384
0.0196182
-0.00503854
0.0196181
-0.00556425
0.0196169
-0.00582088
0.0196022
-0.00503414
0.0194169
0.0190287
0.00454766
0.0197721
0.00518112
0.0199559
0.00491257
0.0201088
0.00442538
0.0201202
0.00392385
0.0201211
0.003421
0.0201211
0.00291806
0.0201211
0.00241511
0.0201211
0.00191216
0.0201211
0.00140921
0.0201211
0.000906263
0.0201211
0.000403315
0.0201211
-9.96336e-05
0.0201211
-0.000602582
0.0201211
-0.00110553
0.0201211
-0.00160848
0.0201211
-0.00211143
0.0201211
-0.00261438
0.0201211
-0.00311732
0.0201211
-0.00362017
0.0201211
-0.00412173
0.0201211
-0.00460919
0.0201203
-0.00488424
0.0201098
-0.00429274
0.0199689
0.0197783
0.0044715
0.0201081
0.0050644
0.0204643
0.00479157
0.0205961
0.0043204
0.0206055
0.00383653
0.0206062
0.0033515
0.0206062
0.0028664
0.0206062
0.0023813
0.0206062
0.00189619
0.0206062
0.00141109
0.0206062
0.000925981
0.0206062
0.000440876
0.0206062
-4.42295e-05
0.0206062
-0.000529335
0.0206062
-0.00101444
0.0206062
-0.00149955
0.0206062
-0.00198465
0.0206062
-0.00246976
0.0206062
-0.00295486
0.0206062
-0.00343989
0.0206062
-0.00392388
0.0206062
-0.00439628
0.0206055
-0.00468372
0.0205968
-0.00416877
0.0204725
0.0203006
0.00364767
0.0208031
0.00406631
0.0209329
0.00379827
0.0210296
0.00337802
0.021036
0.00294857
0.0210365
0.0025183
0.0210366
0.00208798
0.0210366
0.00165766
0.0210366
0.00122734
0.0210366
0.000797014
0.0210366
0.000366691
0.0210366
-6.36319e-05
0.0210366
-0.000493955
0.0210366
-0.000924278
0.0210366
-0.0013546
0.0210366
-0.00178492
0.0210366
-0.00221525
0.0210366
-0.00264557
0.0210366
-0.00307589
0.0210366
-0.00350615
0.0210366
-0.0039355
0.0210365
-0.00435472
0.021036
-0.00460792
0.0210288
-0.00409682
0.0209212
0.0206494
0.00373039
0.0211974
0.00415388
0.021333
0.00390778
0.0214245
0.00352229
0.0214304
0.00312875
0.0214308
0.0027345
0.0214309
0.0023402
0.0214309
0.0019459
0.0214309
0.0015516
0.0214309
0.00115731
0.0214309
0.000763006
0.0214309
0.000368708
0.0214309
-2.55911e-05
0.0214309
-0.00041989
0.0214309
-0.000814189
0.0214309
-0.00120849
0.0214309
-0.00160279
0.0214309
-0.00199708
0.0214309
-0.00239138
0.0214309
-0.00278564
0.0214309
-0.00317921
0.0214308
-0.0035651
0.0214305
-0.00381867
0.0214252
-0.00344625
0.0213431
0.0212228
0.00371692
0.021386
0.00411527
0.0217363
0.0038614
0.0218176
0.00347737
0.0218226
0.00308591
0.021823
0.00269379
0.021823
0.00230164
0.021823
0.00190948
0.021823
0.00151732
0.021823
0.00112516
0.021823
0.000733006
0.021823
0.000340849
0.021823
-5.13089e-05
0.021823
-0.000443466
0.021823
-0.000835624
0.021823
-0.00122778
0.021823
-0.00161994
0.021823
-0.0020121
0.021823
-0.00240425
0.021823
-0.00279637
0.021823
-0.00318789
0.021823
-0.00357257
0.0218227
-0.00383459
0.0218178
-0.00348658
0.02174
0.0215946
0.00293991
0.0219975
0.00321141
0.0221069
0.00297264
0.0221649
0.002633
0.0221684
0.00228786
0.0221686
0.00194224
0.0221687
0.0015966
0.0221687
0.00125096
0.0221687
0.000905315
0.0221687
0.000559671
0.0221687
0.000214027
0.0221687
-0.000131617
0.0221687
-0.00047726
0.0221687
-0.000822904
0.0221687
-0.00116855
0.0221687
-0.00151419
0.0221687
-0.00185984
0.0221687
-0.00220548
0.0221687
-0.00255112
0.0221687
-0.00289673
0.0221687
-0.0032418
0.0221686
-0.00358062
0.0221684
-0.00380668
0.0221643
-0.00344447
0.0220959
0.0217963
0.00300734
0.0223065
0.00329503
0.0224188
0.00308478
0.0224738
0.00278162
0.0224769
0.00247356
0.0224771
0.00216508
0.0224772
0.00185657
0.0224772
0.00154807
0.0224772
0.00123956
0.0224772
0.000931052
0.0224772
0.000622544
0.0224772
0.000314036
0.0224772
5.52865e-06
0.0224772
-0.000302979
0.0224772
-0.000611487
0.0224772
-0.000919995
0.0224772
-0.0012285
0.0224772
-0.00153701
0.0224772
-0.00184552
0.0224772
-0.002154
0.0224772
-0.00246208
0.0224772
-0.00276549
0.022477
-0.00298088
0.0224742
-0.00273504
0.0224256
0.0223244
0.00299021
0.0224151
0.00326063
0.0227317
0.00304638
0.0227809
0.00274466
0.0227837
0.00243833
0.0227839
0.00213161
0.0227839
0.00182486
0.0227839
0.00151811
0.0227839
0.00121137
0.0227839
0.00090462
0.0227839
0.000597874
0.0227839
0.000291127
0.0227839
-1.56196e-05
0.0227839
-0.000322366
0.0227839
-0.000629113
0.0227839
-0.000935859
0.0227839
-0.00124261
0.0227839
-0.00154935
0.0227839
-0.0018561
0.0227839
-0.00216282
0.0227839
-0.00246919
0.0227839
-0.00277135
0.0227837
-0.00299156
0.0227811
-0.00276324
0.0227351
0.0226276
0.00226547
0.0229262
0.00243628
0.0230167
0.00223926
0.0230498
0.0019751
0.0230516
0.00170754
0.0230518
0.0014397
0.0230518
0.00117184
0.0230518
0.000903983
0.0230518
0.000636125
0.0230518
0.000368266
0.0230518
0.000100408
0.0230518
-0.000167451
0.0230518
-0.00043531
0.0230518
-0.000703168
0.0230518
-0.000971027
0.0230518
-0.00123889
0.0230518
-0.00150674
0.0230518
-0.0017746
0.0230518
-0.00204246
0.0230518
-0.0023103
0.0230518
-0.0025778
0.0230518
-0.00284135
0.0230516
-0.00302821
0.0230493
-0.00277637
0.0230077
0.0227002
0.00232154
0.0231588
0.0025149
0.0232501
0.0023488
0.0232814
0.00212067
0.0232831
0.00188948
0.0232832
0.00165802
0.0232832
0.00142654
0.0232832
0.00119507
0.0232832
0.000963597
0.0232832
0.000732124
0.0232832
0.00050065
0.0232832
0.000269177
0.0232832
3.77037e-05
0.0232832
-0.00019377
0.0232832
-0.000425243
0.0232832
-0.000656716
0.0232832
-0.00088819
0.0232832
-0.00111966
0.0232832
-0.00135114
0.0232832
-0.0015826
0.0232832
-0.00181381
0.0232832
-0.00204214
0.0232831
-0.00221225
0.0232817
-0.00205556
0.0232548
0.0231702
0.00231165
0.0231932
0.00249356
0.0234833
0.00232519
0.023512
0.00209798
0.0235135
0.00186785
0.0235136
0.00163747
0.0235136
0.00140708
0.0235136
0.00117668
0.0235136
0.000946292
0.0235136
0.0007159
0.0235136
0.000485508
0.0235136
0.000255116
0.0235136
2.47237e-05
0.0235136
-0.000205669
0.0235136
-0.000436061
0.0235136
-0.000666453
0.0235136
-0.000896845
0.0235136
-0.00112724
0.0235136
-0.00135763
0.0235136
-0.00158801
0.0235136
-0.00181817
0.0235136
-0.00204571
0.0235135
-0.00221903
0.0235122
-0.00207555
0.0234868
0.0234045
0.00163493
0.0236176
0.00173667
0.023692
0.00158604
0.0237094
0.00139156
0.0237103
0.001195
0.0237104
0.000998255
0.0237104
0.000801506
0.0237104
0.000604756
0.0237104
0.000408007
0.0237104
0.000211257
0.0237104
1.45076e-05
0.0237104
-0.000182242
0.0237104
-0.000378992
0.0237104
-0.000575741
0.0237104
-0.000772491
0.0237104
-0.00096924
0.0237104
-0.00116599
0.0237104
-0.00136274
0.0237104
-0.00155949
0.0237104
-0.00175623
0.0237104
-0.00195275
0.0237104
-0.00214677
0.0237103
-0.00228944
0.023709
-0.00211864
0.0236851
0.0233951
0.0016813
0.0237838
0.00180651
0.0238569
0.00168519
0.0238732
0.00152349
0.0238741
0.00135988
0.0238742
0.00119612
0.0238742
0.00103235
0.0238742
0.000868573
0.0238742
0.000704801
0.0238742
0.000541028
0.0238742
0.000377255
0.0238742
0.000213482
0.0238742
4.97095e-05
0.0238742
-0.000114063
0.0238742
-0.000277836
0.0238742
-0.000441609
0.0238742
-0.000605382
0.0238742
-0.000769154
0.0238742
-0.000932927
0.0238742
-0.00109669
0.0238742
-0.00126031
0.0238742
-0.00142215
0.0238741
-0.00154639
0.0238734
-0.00145023
0.0238596
0.0237864
0.00168115
0.0237572
0.00179979
0.0240198
0.0016779
0.0240356
0.00151755
0.0240364
0.00135538
0.0240365
0.00119306
0.0240365
0.00103072
0.0240365
0.000868389
0.0240365
0.000706056
0.0240365
0.000543722
0.0240365
0.000381388
0.0240365
0.000219055
0.0240365
5.6721e-05
0.0240365
-0.000105613
0.0240365
-0.000267946
0.0240365
-0.00043028
0.0240365
-0.000592614
0.0240365
-0.000754947
0.0240365
-0.000917281
0.0240365
-0.00107961
0.0240365
-0.0012418
0.0240365
-0.0014024
0.0240364
-0.00152844
0.0240358
-0.00144441
0.0240233
0.0239572
0.00106444
0.0240997
0.00111949
0.0241602
0.00101561
0.0241682
0.000884749
0.0241687
0.000752659
0.0241687
0.000620467
0.0241687
0.000488269
0.0241687
0.000356072
0.0241687
0.000223875
0.0241687
9.16773e-05
0.0241687
-4.052e-05
0.0241687
-0.000172717
0.0241687
-0.000304915
0.0241687
-0.000437112
0.0241687
-0.00056931
0.0241687
-0.000701507
0.0241687
-0.000833704
0.0241687
-0.000965902
0.0241687
-0.0010981
0.0241687
-0.00123029
0.0241687
-0.00136235
0.0241687
-0.00149288
0.0241686
-0.00159081
0.024168
-0.00148118
0.0241553
0.0239155
0.00110058
0.0242084
0.00117543
0.0242664
0.00109564
0.0242738
0.000991298
0.0242742
0.000885834
0.0242742
0.000780277
0.0242742
0.000674714
0.0242742
0.000569152
0.0242742
0.000463589
0.0242742
0.000358027
0.0242742
0.000252464
0.0242742
0.000146902
0.0242742
4.13391e-05
0.0242742
-6.42235e-05
0.0242742
-0.000169786
0.0242742
-0.000275349
0.0242742
-0.000380911
0.0242742
-0.000486474
0.0242742
-0.000592036
0.0242742
-0.000697594
0.0242742
-0.000803066
0.0242742
-0.000907503
0.0242742
-0.000989108
0.0242739
-0.000933565
0.0242675
0.0242007
0.0011078
0.0241358
0.00118047
0.0243681
0.00110247
0.0243763
0.00100117
0.0243767
0.000898797
0.0243767
0.000796332
0.0243767
0.000693863
0.0243767
0.000591394
0.0243767
0.000488924
0.0243767
0.000386455
0.0243767
0.000283985
0.0243767
0.000181516
0.0243767
7.90466e-05
0.0243767
-2.34229e-05
0.0243767
-0.000125892
0.0243767
-0.000228362
0.0243767
-0.000330831
0.0243767
-0.000433301
0.0243767
-0.00053577
0.0243767
-0.000638236
0.0243767
-0.000740626
0.0243767
-0.00084212
0.0243767
-0.00092358
0.0243764
-0.000881202
0.0243712
0.0243198
0.000560763
0.0244011
0.000582951
0.0244497
0.000521873
0.0244526
0.0004465
0.0244528
0.0003705
0.0244528
0.000294448
0.0244528
0.000218394
0.0244528
0.000142339
0.0244528
6.62846e-05
0.0244528
-9.76989e-06
0.0244528
-8.58244e-05
0.0244528
-0.000161879
0.0244528
-0.000237933
0.0244528
-0.000313988
0.0244528
-0.000390042
0.0244528
-0.000466097
0.0244528
-0.000542151
0.0244528
-0.000618206
0.0244528
-0.00069426
0.0244528
-0.000770311
0.0244528
-0.000846289
0.0244528
-0.000921409
0.0244528
-0.000977811
0.0244524
-0.000911877
0.0244465
0.0242784
0.000585132
0.0244626
0.000619463
0.0245125
0.000574075
0.0245114
0.000516018
0.0245114
0.000457392
0.0245114
0.000398718
0.0245114
0.000340042
0.0245114
0.000281366
0.0245114
0.00022269
0.0245114
0.000164014
0.0245114
0.000105338
0.0245114
4.66617e-05
0.0245114
-1.20144e-05
0.0245114
-7.06905e-05
0.0245114
-0.000129367
0.0245114
-0.000188043
0.0245114
-0.000246719
0.0245114
-0.000305395
0.0245114
-0.000364071
0.0245114
-0.000422745
0.0245114
-0.000481371
0.0245114
-0.000539421
0.0245114
-0.000584603
0.0245113
-0.000551328
0.0245114
0.0244471
0.000561315
0.0244332
0.000625585
0.0245797
0.000584187
0.0245666
0.000529605
0.0245667
0.000474384
0.0245667
0.000419111
0.0245667
0.000363835
0.0245667
0.000308559
0.0245667
0.000253283
0.0245667
0.000198007
0.0245667
0.00014273
0.0245667
8.74544e-05
0.0245667
3.21783e-05
0.0245667
-2.30978e-05
0.0245667
-7.83739e-05
0.0245667
-0.00013365
0.0245667
-0.000188926
0.0245667
-0.000244202
0.0245667
-0.000299478
0.0245667
-0.000354752
0.0245667
-0.000409979
0.0245667
-0.000464636
0.0245667
-0.000507544
0.0245667
-0.000456601
0.024582
0.024476
-0.0138583
0.0552984
-0.014487
0.0556413
-0.0140184
0.0559592
-0.0135005
0.055966
-0.0129814
0.0559662
-0.0124621
0.0559662
-0.0119428
0.0559662
-0.0114236
0.0559662
-0.0109043
0.0559662
-0.0103851
0.0559662
-0.00986583
0.0559662
-0.00934658
0.0559662
-0.00882732
0.0559662
-0.00830807
0.0559662
-0.00778881
0.0559662
-0.00726956
0.0559662
-0.00675031
0.0559662
-0.00623105
0.0559662
-0.0057118
0.0559662
-0.00519254
0.0559662
-0.00467329
0.0559662
-0.00415403
0.0559662
-0.00363478
0.0559662
-0.00311553
0.0559662
-0.00259627
0.0559662
-0.00207702
0.0559662
-0.00155774
0.0559662
-0.00103709
0.0559662
-0.000448128
0.0559605
0.0559475
-0.0157446
0.0562525
-0.0163902
0.0551077
-0.0158604
0.0553741
-0.0152743
0.0553786
-0.0146869
0.0553788
-0.0140994
0.0553788
-0.013512
0.0553788
-0.0129245
0.0553788
-0.012337
0.0553788
-0.0117495
0.0553788
-0.011162
0.0553788
-0.0105746
0.0553788
-0.0099871
0.0553788
-0.00939962
0.0553788
-0.00881214
0.0553788
-0.00822467
0.0553788
-0.00763719
0.0553788
-0.00704972
0.0553788
-0.00646224
0.0553788
-0.00587476
0.0553788
-0.00528729
0.0553788
-0.00469981
0.0553788
-0.00411233
0.0553788
-0.00352486
0.0553788
-0.00293738
0.0553788
-0.0023499
0.0553788
-0.00176242
0.0553788
-0.00117447
0.0553788
-0.00058599
0.0553787
0.0553538
-0.0133146
0.0552057
-0.0137486
0.0546882
-0.0132948
0.0548835
-0.0128031
0.0548862
-0.0123107
0.0548863
-0.0118183
0.0548863
-0.0113258
0.0548863
-0.0108334
0.0548863
-0.010341
0.0548863
-0.00984855
0.0548863
-0.00935613
0.0548863
-0.0088637
0.0548863
-0.00837127
0.0548863
-0.00787884
0.0548863
-0.00738641
0.0548863
-0.00689399
0.0548863
-0.00640156
0.0548863
-0.00590913
0.0548863
-0.0054167
0.0548863
-0.00492428
0.0548863
-0.00443185
0.0548863
-0.00393942
0.0548863
-0.00344699
0.0548863
-0.00295457
0.0548863
-0.00246214
0.0548863
-0.00196971
0.0548863
-0.00147728
0.0548863
-0.000984491
0.0548863
-0.000491629
0.0548863
0.0548611
-0.0113324
0.0545372
-0.0116574
0.0543024
-0.0112697
0.0544664
-0.0108529
0.0544688
-0.0104355
0.0544689
-0.0100181
0.0544689
-0.00960067
0.0544689
-0.00918325
0.0544689
-0.00876583
0.0544689
-0.00834841
0.0544689
-0.00793099
0.0544689
-0.00751357
0.0544689
-0.00709615
0.0544689
-0.00667873
0.0544689
-0.00626131
0.0544689
-0.00584389
0.0544689
-0.00542647
0.0544689
-0.00500905
0.0544689
-0.00459162
0.0544689
-0.0041742
0.0544689
-0.00375678
0.0544689
-0.00333936
0.0544689
-0.00292194
0.0544689
-0.00250452
0.0544689
-0.0020871
0.0544689
-0.00166968
0.0544689
-0.00125225
0.0544689
-0.000834529
0.0544689
-0.000416754
0.0544689
0.0544437
-0.0108014
0.0541219
-0.011114
0.0539203
-0.0107443
0.0540686
-0.010347
0.0540709
-0.00994906
0.0540709
-0.0095511
0.0540709
-0.00915313
0.0540709
-0.00875517
0.0540709
-0.00835721
0.0540709
-0.00795925
0.0540709
-0.00756128
0.0540709
-0.00716332
0.0540709
-0.00676536
0.0540709
-0.0063674
0.0540709
-0.00596944
0.0540709
-0.00557147
0.0540709
-0.00517351
0.0540709
-0.00477555
0.0540709
-0.00437759
0.0540709
-0.00397962
0.0540709
-0.00358166
0.0540709
-0.0031837
0.0540709