/*--------------------------------*- C++ -*----------------------------------*\
| =========                 |                                                 |
| \\      /  F ield         | OpenFOAM: The Open Source CFD Toolbox           |
|  \\    /   O peration     | Version:  2112                                  |
|   \\  /    A nd           | Website:  www.openfoam.com                      |
|    \\/     M anipulation  |                                                 |
\*---------------------------------------------------------------------------*/
FoamFile
{
    version     2.0;
    format      ascii;
    arch        "LSB;label=32;scalar=64";
    class       volVectorField;
    location    "4e-05";
    object      U;
}
// * * * * * * * * * * * * * * * * * * * * * * * * * * * * * * * * * * * * * //

dimensions      [0 1 -1 0 0 0 0];

internalField   nonuniform List<vector> 
13875
(
(2215.21 190.327 1.45318e-18)
(2227.82 123.168 -8.08026e-19)
(2253.76 50.8305 -7.07219e-19)
(2266.95 22.1599 0)
(2271.98 8.28372 0)
(2273.57 2.8059 6.67796e-19)
(2274 0.867436 -6.67471e-19)
(2274.07 0.254786 -3.33582e-19)
(2274.06 0.0759096 3.33217e-19)
(2274.04 0.0244288 0)
(2274.03 0.00824594 -3.45864e-22)
(2274.02 0.00175716 -3.45874e-22)
(2274.01 -0.00210733 0)
(2274.01 -0.00548615 -3.33287e-19)
(2274.01 -0.0119794 3.33629e-19)
(2274.03 -0.03008 0)
(2274.06 -0.0850077 6.67055e-19)
(2274.1 -0.26752 -6.67415e-19)
(2274.05 -0.879386 3.45825e-22)
(2273.64 -2.80636 -3.46196e-22)
(2272.04 -8.25833 -6.73106e-19)
(2266.97 -22.0874 6.7783e-19)
(2253.69 -50.7166 -1.41427e-18)
(2227.46 -123.034 1.44609e-18)
(2214.76 -190.032 1.51926e-18)
(2101.1 119.328 -1.93949e-18)
(2076.73 62.3882 2.11016e-18)
(2079.71 31.6329 9.96574e-19)
(2084.44 13.8159 -9.83433e-19)
(2086.28 5.00675 5.49283e-22)
(2086.78 1.65279 4.51008e-22)
(2086.87 0.506109 5.48191e-22)
(2086.86 0.152373 -4.88191e-19)
(2086.85 0.0501144 4.88088e-19)
(2086.83 0.0200958 2.43576e-19)
(2086.82 0.00939591 -1.82641e-19)
(2086.81 0.00387287 -5.94848e-20)
(2086.81 -0.000165583 0)
(2086.81 -0.00388905 -4.8871e-19)
(2086.81 -0.00903334 4.87697e-19)
(2086.82 -0.0207554 4.88189e-19)
(2086.84 -0.054927 -4.88178e-19)
(2086.87 -0.163785 4.5053e-22)
(2086.89 -0.520753 -4.50565e-22)
(2086.82 -1.65906 4.50924e-22)
(2086.33 -4.98465 -9.78794e-19)
(2084.47 -13.7396 2.95162e-18)
(2079.67 -31.5027 -1.99203e-18)
(2076.82 -62.2052 4.73851e-22)
(2107.76 -119.89 -2.0081e-18)
(1758.99 27.07 0)
(1695.86 -14.2493 0)
(1684.43 4.66783 0)
(1685.64 2.70155 0)
(1686.29 1.25476 -2.27383e-18)
(1686.45 0.47685 2.27061e-18)
(1686.48 0.166528 2.27251e-18)
(1686.49 0.0582757 -3.40773e-18)
(1686.49 0.0228429 1.13651e-18)
(1686.5 0.0112405 4.90859e-22)
(1686.49 0.00663049 -5.6813e-19)
(1686.49 0.00317497 5.68246e-19)
(1686.49 -0.000190039 0)
(1686.49 -0.00336441 0)
(1686.48 -0.00693847 4.909e-22)
(1686.48 -0.0129263 0)
(1686.48 -0.0266954 1.09811e-21)
(1686.47 -0.0648463 5.67998e-19)
(1686.46 -0.176237 -5.68026e-19)
(1686.42 -0.485434 0)
(1686.26 -1.24531 0)
(1685.59 -2.60676 0)
(1684.26 -4.5365 0)
(1695.96 15.0563 0)
(1755.68 -26.0477 0)
(963.726 -13.9518 0)
(976.128 -32.464 2.23263e-18)
(984.509 -3.09145 -4.38371e-18)
(988.746 -0.963016 4.38468e-18)
(989.947 0.00322627 -2.18834e-18)
(990.283 0.0750023 0)
(990.374 0.0453879 -1.07971e-21)
(990.398 0.0236391 0)
(990.404 0.0128773 0)
(990.405 0.00773187 0)
(990.402 0.00487579 0)
(990.396 0.0022277 -1.07999e-21)
(990.391 -0.000207309 -6.84e-20)
(990.386 -0.0022643 6.83998e-20)
(990.38 -0.00419157 0)
(990.372 -0.00729301 0)
(990.36 -0.0128477 5.97003e-22)
(990.343 -0.0231706 -1.09597e-18)
(990.306 -0.0444523 1.09428e-18)
(990.203 -0.0719883 -2.1879e-18)
(989.853 0.00971616 2.1884e-18)
(988.643 1.04365 2.19505e-18)
(984.429 3.15262 -2.19363e-18)
(975.753 32.6641 0)
(960.451 14.4733 0)
(440.101 -4.80296 1.69845e-18)
(460.54 -10.5098 0)
(468.035 -0.583337 0)
(469.08 -0.563966 0)
(469.353 -0.0591413 0)
(469.462 0.00885427 9.28321e-22)
(469.496 0.0125232 9.28343e-22)
(469.508 0.00989083 4.00481e-19)
(469.512 0.00770908 -3.98626e-19)
(469.513 0.00497924 1.98853e-19)
(469.511 0.0026837 -2.0071e-19)
(469.507 0.00125539 0)
(469.503 0.000297633 0)
(469.499 -0.000463642 -9.28393e-22)
(469.494 -0.0011242 0)
(469.487 -0.00217739 -9.28375e-22)
(469.478 -0.00360578 7.95999e-19)
(469.466 -0.00484855 -7.96008e-19)
(469.447 -0.00681943 1.59903e-18)
(469.406 -0.00296669 -1.59804e-18)
(469.29 0.0660645 9.28331e-22)
(469.016 0.598466 0)
(468.068 0.579389 0)
(460.359 10.3204 0)
(439.109 4.75442 0)
(111.881 0.645657 0)
(116.614 -0.0841927 2.70945e-19)
(118.941 0.208679 -2.69856e-19)
(118.766 -0.0421903 0)
(118.742 -0.00123012 2.71208e-19)
(118.748 0.00304132 -1.37262e-19)
(118.753 0.00258572 -1.65667e-21)
(118.756 0.0022516 -6.94636e-20)
(118.758 0.00195026 -1.37271e-19)
(118.759 0.00144365 5.25143e-20)
(118.758 0.00105771 1.65971e-21)
(118.756 0.000859241 8.43403e-20)
(118.754 0.000758161 -6.7806e-20)
(118.752 0.000672063 2.07645e-21)
(118.749 0.000569877 -1.35607e-19)
(118.746 0.000415035 1.37268e-19)
(118.743 0.000253326 1.65947e-21)
(118.739 0.000234794 -1.65943e-21)
(118.735 6.75016e-05 -1.65939e-21)
(118.729 -0.000393845 -2.71191e-19)
(118.72 0.00377612 2.69527e-19)
(118.742 0.0501033 0)
(118.951 -0.210282 0)
(116.561 0.0441112 -5.32766e-19)
(111.537 -0.660395 5.53599e-21)
(14.1846 0.00185546 -1.14229e-20)
(14.7709 -0.0222681 1.1382e-20)
(14.9643 0.00118438 0)
(14.9521 -0.000167034 -5.52796e-24)
(14.9505 9.96892e-05 -5.52806e-24)
(14.9506 0.000100271 0)
(14.9508 8.49707e-05 0)
(14.9509 8.20593e-05 -1.82351e-19)
(14.9511 7.80229e-05 1.82358e-19)
(14.9512 7.06492e-05 0)
(14.9511 6.58356e-05 3.6472e-19)
(14.951 6.32399e-05 4.88123e-22)
(14.9508 6.17751e-05 -3.64727e-19)
(14.9506 6.06194e-05 -4.93792e-22)
(14.9505 5.96704e-05 0)
(14.9503 5.80632e-05 7.29467e-19)
(14.95 5.65064e-05 5.05801e-24)
(14.9498 5.81268e-05 -1.45897e-18)
(14.9496 5.79473e-05 7.29492e-19)
(14.9495 4.1997e-05 5.52882e-24)
(14.9493 2.66554e-05 0)
(14.9507 0.000140931 7.29514e-19)
(14.9648 -0.00368557 -7.29539e-19)
(14.7628 -0.0114798 7.28712e-19)
(14.1543 -0.0339904 -7.30956e-19)
(10.0283 0.0430296 5.57355e-22)
(10.0957 0.0432424 -1.44614e-18)
(10.1064 0.00325102 1.76462e-22)
(10.1066 0.000284188 5.55139e-24)
(10.1066 1.91659e-05 -1.70894e-22)
(10.1066 2.83236e-06 0)
(10.1066 1.36045e-06 -7.22759e-19)
(10.1066 1.30266e-06 7.22744e-19)
(10.1066 1.24677e-06 0)
(10.1066 1.15886e-06 -1.76436e-22)
(10.1066 1.10084e-06 -1.76435e-22)
(10.1066 1.05497e-06 0)
(10.1066 1.01991e-06 0)
(10.1066 9.95812e-07 -3.4731e-22)
(10.1066 9.92114e-07 -1.76429e-22)
(10.1066 9.77047e-07 5.55076e-24)
(10.1066 9.56079e-07 -1.81976e-22)
(10.1066 9.79576e-07 -5.55066e-24)
(10.1066 9.74242e-07 -3.61341e-19)
(10.1066 -7.43892e-08 -5.54246e-24)
(10.1065 -1.19524e-05 3.61511e-19)
(10.1065 -0.000206565 1.81968e-22)
(10.1062 -0.0023936 7.2268e-19)
(10.0937 -0.0318309 -7.23231e-19)
(9.99045 -0.0318047 5.55798e-24)
(9.53655 -0.0174231 1.8094e-19)
(9.95732 -0.0272055 0)
(9.99705 -0.00437686 -1.76184e-22)
(10.0016 -0.000491094 -1.80386e-19)
(10.002 -4.51426e-05 3.60951e-19)
(10.002 -3.35633e-06 -3.60776e-19)
(10.002 -2.15846e-07 8.80814e-23)
(10.002 -1.47979e-08 1.8039e-19)
(10.002 -4.57676e-09 0)
(10.002 -5.68904e-09 -1.80128e-19)
(10.002 -6.64572e-09 1.80569e-19)
(10.002 -7.79146e-09 0)
(10.002 -8.82828e-09 0)
(10.002 -9.57616e-09 4.40448e-22)
(10.002 -9.48267e-09 1.76183e-22)
(10.002 -9.68454e-09 1.80398e-19)
(10.002 -9.49092e-09 -1.80223e-19)
(10.002 6.25701e-09 0)
(10.002 2.58838e-07 1.80402e-19)
(10.002 4.22228e-06 -3.60717e-19)
(10.002 5.5826e-05 1.80228e-19)
(10.0016 0.000662554 -1.76191e-22)
(9.9971 0.00581262 0)
(9.95823 0.0456239 0)
(9.55614 0.0352827 0)
(9.11458 -0.509447 -1.25703e-17)
(9.74239 -0.560753 1.26166e-17)
(9.9698 -0.0657925 0)
(9.99705 -0.00709925 -6.26544e-18)
(9.99981 -0.000588574 6.26538e-18)
(10 -4.98237e-05 0)
(10.0001 -3.3969e-06 -6.21199e-21)
(10.0001 -2.03481e-07 -3.13106e-18)
(10.0001 -1.09362e-08 3.12449e-18)
(10.0001 -6.46377e-11 -6.20906e-21)
(10.0001 5.32307e-10 0)
(10.0001 5.5499e-10 -7.82219e-19)
(10.0001 5.32406e-10 1.16697e-18)
(10.0001 5.19541e-10 -3.9715e-19)
(10.0001 5.60758e-10 -6.10721e-21)
(10.0001 1.18127e-09 0)
(10.0001 1.22212e-08 0)
(10.0001 2.06418e-07 -6.24926e-18)
(10.0001 3.4156e-06 6.24146e-18)
(10 4.98362e-05 -6.2461e-18)
(9.99981 0.000588305 6.23831e-18)
(9.99705 0.00703033 6.24209e-18)
(9.96997 0.0648904 -6.23422e-18)
(9.74856 0.5483 -1.25454e-17)
(9.1045 0.4971 -5.38237e-20)
(9.05793 -0.906115 -1.42131e-17)
(9.43183 -0.990349 1.4338e-17)
(9.93022 -0.123517 0)
(9.99177 -0.0156545 1.42178e-17)
(9.9993 -0.00141714 -1.42219e-17)
(9.99994 -0.000129954 -7.11503e-18)
(10 -9.64187e-06 7.12612e-18)
(10 -6.38614e-07 -7.12325e-18)
(10 -3.86993e-08 7.12731e-18)
(10 -2.1972e-09 6.9643e-21)
(10 -1.00858e-10 0)
(10 1.09401e-11 -4.4618e-19)
(10 1.75334e-11 4.53371e-19)
(10 2.55553e-11 6.97823e-21)
(10 1.49473e-10 6.98114e-21)
(10 2.48982e-09 6.98385e-21)
(10 4.3072e-08 0)
(10 7.06746e-07 0)
(10 1.06355e-05 -1.4313e-17)
(9.99994 0.000142271 1.43254e-17)
(9.99921 0.00154242 -1.43309e-17)
(9.99081 0.0168453 2.86745e-17)
(9.92297 0.131283 -1.43459e-17)
(9.37978 1.0339 -7.01842e-21)
(8.99258 0.944914 7.08633e-21)
(9.07399 -1.15367 -1.56625e-17)
(9.22448 -1.25738 1.52747e-19)
(9.89847 -0.169991 3.12908e-17)
(9.98623 -0.0246139 -1.56457e-17)
(9.99872 -0.00244065 0)
(9.99988 -0.000243657 1.56399e-17)
(9.99999 -1.97834e-05 -1.56433e-17)
(10 -1.41808e-06 0)
(10 -9.30882e-08 7.64128e-21)
(10 -5.77772e-09 0)
(10 -3.13506e-10 0)
(10 -5.20936e-12 0)
(10 1.17292e-11 9.78645e-19)
(10 2.8157e-11 -9.78683e-19)
(10 3.25049e-10 -7.64602e-21)
(10 5.59576e-09 -7.64602e-21)
(10 9.00853e-08 0)
(10 1.37827e-06 0)
(9.99999 1.92966e-05 0)
(9.99989 0.000238878 -1.56564e-17)
(9.99876 0.0023995 3.13259e-17)
(9.98652 0.0244273 -1.5669e-17)
(9.90055 0.169009 -1.56824e-17)
(9.22692 1.2642 1.56833e-17)
(9.12147 1.16356 -7.7167e-21)
(9.09711 -1.34186 1.71275e-17)
(9.10511 -1.45836 0)
(9.87627 -0.211737 0)
(9.98127 -0.0340606 -1.69188e-17)
(9.99813 -0.00365581 1.69192e-17)
(9.99982 -0.000392858 0)
(9.99999 -3.46183e-05 2.06511e-21)
(10 -2.69957e-06 8.45823e-18)
(10 -1.92033e-07 -8.45554e-18)
(10 -1.2841e-08 0)
(10 -7.88213e-10 -2.11396e-18)
(10 -4.4985e-11 2.11576e-18)
(10 -5.75588e-13 -1.05667e-18)
(10 3.92245e-11 1.05848e-18)
(10 6.9876e-10 8.251e-21)
(10 1.14633e-08 -8.44658e-18)
(10 1.72208e-07 1.689e-17)
(10 2.44204e-06 3.8084e-25)
(9.99999 3.1588e-05 -8.4382e-18)
(9.99984 0.000362819 -1.68703e-17)
(9.99832 0.00339736 1.68534e-17)
(9.98282 0.0323074 1.02892e-20)
(9.88622 0.202037 2.05833e-21)
(9.14829 1.42931 1.70433e-17)
(9.19689 1.31918 1.51544e-19)
(9.25122 -1.44747 0)
(9.11584 -1.56581 0)
(9.87435 -0.237696 0)
(9.9791 -0.041606 0)
(9.99779 -0.00474261 0)
(9.99977 -0.000544003 1.79015e-17)
(9.99998 -5.14901e-05 -1.78883e-17)
(10 -4.33095e-06 1.74517e-20)
(10 -3.32766e-07 -2.17952e-21)
(10 -2.41747e-08 4.45959e-18)
(10 -1.60852e-09 -4.47285e-18)
(10 -9.96357e-11 -3.69492e-20)
(10 -7.26505e-13 -1.38968e-19)
(10 8.68122e-11 1.54008e-19)
(10 1.40207e-09 -4.43755e-18)
(10 2.11112e-08 4.43262e-18)
(10 2.91321e-07 1.51341e-20)
(10 3.7982e-06 0)
(9.99998 4.53313e-05 0)
(9.9998 0.000482256 0)
(9.99812 0.00423554 -1.76285e-17)
(9.98218 0.0375956 6.93178e-21)
(9.89064 0.218841 1.75917e-17)
(9.22629 1.46926 2.15148e-21)
(9.30361 1.35269 2.16893e-21)
(9.40353 -1.41239 0)
(9.28335 -1.53335 4.55074e-21)
(9.89253 -0.244302 0)
(9.98115 -0.0451801 -1.86003e-17)
(9.99787 -0.00546536 3.72359e-17)
(9.99977 -0.000661387 -1.86306e-17)
(9.99998 -6.68956e-05 0)
(10 -6.03105e-06 -1.82228e-20)
(10 -4.99357e-07 0)
(10 -3.90832e-08 0)
(10 -2.81767e-09 -2.315e-18)
(10 -1.88991e-10 2.37151e-18)
(10 4.24943e-12 2.34113e-18)
(10 2.53155e-10 -2.36088e-18)
(10 3.72898e-09 0)
(10 5.11403e-08 -9.381e-18)
(10 6.46241e-07 9.36819e-18)
(10 7.67507e-06 9.39622e-18)
(9.99997 8.35197e-05 -9.39659e-18)
(9.99968 0.000805358 0)
(9.99712 0.00653134 0)
(9.97562 0.0517584 -1.83818e-20)
(9.86262 0.274962 -1.88757e-17)
(9.15226 1.625 3.79714e-17)
(9.16865 1.48865 -1.89293e-17)
(9.50903 -1.54097 -2.01701e-17)
(9.26402 -1.66124 2.03485e-17)
(9.88337 -0.286494 0)
(9.97739 -0.0582673 -2.01184e-17)
(9.99728 -0.00766245 -3.15096e-21)
(9.99968 -0.000998151 3.02356e-17)
(9.99997 -0.000109653 -2.01812e-17)
(10 -1.07202e-05 1.00993e-17)
(10 -9.62918e-07 0)
(10 -8.1874e-08 0)
(10 -6.44336e-09 -4.94345e-21)
(10 -4.73314e-10 1.48419e-20)
(10 6.22534e-12 0)
(10 5.60663e-10 0)
(10 7.58442e-09 5.07635e-18)
(10 9.57968e-08 -5.0795e-18)
(10 1.11936e-06 -1.01651e-17)
(10 1.23677e-05 2.0327e-17)
(9.99996 0.000125304 1.72691e-23)
(9.99961 0.0011279 -1.01722e-17)
(9.99672 0.00856912 0)
(9.97316 0.0642327 0)
(9.86429 0.310834 -2.0458e-17)
(9.1516 1.78048 2.04874e-17)
(9.4466 1.65504 -5.05481e-21)
(10.3123 -1.15634 2.04004e-17)
(9.74304 -1.22322 -9.9042e-21)
(9.96947 -0.194593 1.00928e-17)
(9.99303 -0.0404935 -1.00991e-17)
(9.99924 -0.005184 -4.92349e-21)
(9.9999 -0.000692201 9.84564e-21)
(9.99999 -7.80136e-05 1.00804e-17)
(10 -7.94495e-06 -1.51184e-17)
(10 -7.52427e-07 5.04357e-18)
(10 -6.84535e-08 0)
(10 -5.79989e-09 -2.51354e-18)
(10 -4.61903e-10 2.51309e-18)
(10 -3.8475e-12 0)
(10 4.13239e-10 4.91585e-21)
(10 5.20329e-09 -2.51135e-18)
(10 6.15958e-08 2.51561e-18)
(10 6.79047e-07 0)
(10 7.22202e-06 -1.00471e-17)
(9.99999 7.14754e-05 1.0054e-17)
(9.99993 0.000641406 1.00414e-17)
(9.99946 0.00483481 -2.01016e-17)
(9.99448 0.0386238 1.00505e-17)
(9.97783 0.185122 0)
(9.77511 1.20646 2.0279e-17)
(10.459 1.14483 1.14515e-19)
(11.0986 -0.333609 1.19362e-20)
(10.1143 -0.339529 1.00676e-17)
(10.027 -0.0515203 -5.01434e-18)
(10.0036 -0.0107872 -5.00818e-18)
(10.0005 -0.0013789 7.51522e-18)
(10.0001 -0.000187909 -5.00566e-18)
(10 -2.13954e-05 5.00578e-18)
(10 -2.22587e-06 -5.00416e-18)
(10 -2.17698e-07 -4.88593e-21)
(10 -2.05149e-08 2.50113e-18)
(10 -1.80054e-09 1.24545e-18)
(10 -1.49297e-10 -4.27285e-21)
(10 -4.57701e-12 -1.25063e-18)
(10 9.37189e-11 -4.27164e-21)
(10 1.13238e-09 -5.49093e-21)
(10 1.28358e-08 -1.56153e-19)
(10 1.35483e-07 -2.87043e-28)
(10 1.37633e-06 4.68256e-19)
(10 1.31261e-05 -3.12098e-19)
(10.0001 0.000114995 0)
(10.0005 0.000835729 1.2527e-18)
(10.0036 0.00648642 -3.74797e-18)
(10.0265 0.0293971 4.99362e-18)
(10.1189 0.183023 -7.51842e-18)
(11.0249 0.178777 7.53775e-18)
(10.7028 1.26255 -1.95569e-20)
(9.74882 1.30668 -2.02242e-20)
(9.97471 0.207196 2.01837e-20)
(9.99359 0.0425719 -6.30406e-22)
(9.9994 0.00534076 -1.95276e-20)
(9.99992 0.000721754 -2.07751e-20)
(9.99999 8.15633e-05 -6.2915e-22)
(10 8.3294e-06 0)
(10 7.98149e-07 0)
(10 7.39638e-08 5.12416e-18)
(10 6.37559e-09 -5.14094e-18)
(10 5.1744e-10 -6.27149e-22)
(10 1.00624e-11 6.26663e-22)
(10 -3.87644e-10 -6.62073e-19)
(10 -4.80238e-09 6.41578e-19)
(10 -5.59811e-08 0)
(10 -6.07536e-07 0)
(10 -6.41881e-06 -5.11651e-18)
(10 -6.38267e-05 5.09268e-18)
(9.99998 -0.000576531 -1.99563e-20)
(9.99988 -0.00432439 0)
(9.99737 -0.0356848 0)
(9.99356 -0.175103 -2.05325e-20)
(9.85692 -1.14285 -2.05413e-20)
(10.774 -1.10053 2.04594e-17)
(9.27884 1.80102 -2.09439e-17)
(9.00253 1.93794 -2.10053e-17)
(9.82022 0.376896 2.0913e-17)
(9.96527 0.0767754 0)
(9.99564 0.0105008 2.04949e-20)
(9.99947 0.00140213 1.05207e-17)
(9.99995 0.000158453 -2.1014e-17)
(10 1.58115e-05 1.05141e-17)
(10 1.45244e-06 -1.05308e-17)
(10 1.25536e-07 1.05472e-17)
(10 1.00162e-08 2.62279e-18)
(10 7.43895e-10 -3.28259e-18)
(10 -1.78615e-12 -6.58865e-19)
(10 -7.67527e-10 1.32825e-18)
(10 -1.03189e-08 0)
(10 -1.29226e-07 0)
(10 -1.49358e-06 1.05543e-17)
(10 -1.62589e-05 -2.11147e-17)
(9.99994 -0.000162896 1.05806e-17)
(9.99945 -0.00144165 2.06296e-20)
(9.99547 -0.010759 2.11367e-17)
(9.96372 -0.0788615 -1.65927e-20)
(9.8149 -0.383786 -6.33243e-17)
(8.95669 -1.99376 6.34533e-17)
(9.34517 -1.86238 -2.13974e-17)
(8.97254 1.52381 9.27101e-21)
(9.08343 1.66971 -1.9028e-17)
(9.835 0.312608 1.89483e-17)
(9.9718 0.0571113 0)
(9.9966 0.00733709 0)
(9.99962 0.000911257 0)
(9.99996 9.49441e-05 0)
(10 8.72785e-06 0)
(10 7.38584e-07 -4.76139e-18)
(10 5.84178e-08 9.53991e-18)
(10 4.24709e-09 -7.16759e-18)
(10 2.86469e-10 2.68046e-18)
(10 -4.23539e-12 -2.99078e-19)
(10 -3.50581e-10 -8.04041e-33)
(10 -5.1512e-09 -4.79053e-18)
(10 -7.0223e-08 4.79357e-18)
(10 -8.79434e-07 0)
(10 -1.02744e-05 0)
(9.99996 -0.000110335 -1.91987e-17)
(9.99953 -0.00104254 1.92184e-17)
(9.99592 -0.00829834 -1.87775e-20)
(9.96676 -0.063272 9.3937e-21)
(9.80876 -0.340748 -9.39771e-21)
(8.9673 -1.76553 -9.42174e-21)
(8.84184 -1.60945 0)
(9.12902 1.24143 -1.73781e-17)
(9.29049 1.3563 1.71155e-17)
(9.88486 0.226299 -1.68316e-20)
(9.98251 0.0364598 1.72405e-17)
(9.99809 0.00419597 -1.72428e-17)
(9.9998 0.00047789 0)
(9.99998 4.52151e-05 -8.62536e-18)
(10 3.79348e-06 8.61846e-18)
(10 2.94263e-07 -4.31414e-18)
(10 2.14132e-08 8.64638e-18)
(10 1.42902e-09 -4.30689e-18)
(10 8.87375e-11 1.68586e-20)
(10 -9.34722e-13 0)
(10 -1.00937e-10 2.1667e-18)
(10 -1.61585e-09 2.15841e-18)
(10 -2.40413e-08 -4.30858e-18)
(10 -3.28085e-07 -8.6427e-18)
(10 -4.1887e-06 8.64281e-18)
(9.99998 -4.93729e-05 -8.64277e-18)
(9.99978 -0.000515397 8.63417e-18)
(9.99786 -0.00448688 8.43141e-21)
(9.98085 -0.0382846 -8.43059e-21)
(9.87505 -0.235316 0)
(9.25263 -1.37543 8.43285e-21)
(9.02185 -1.25299 0)
(9.3005 0.999553 1.59161e-17)
(9.48358 1.08726 -1.57037e-17)
(9.92529 0.161158 6.74653e-21)
(9.98991 0.0230195 0)
(9.999 0.00237487 0)
(9.99991 0.000249317 -9.63093e-22)
(9.99999 2.14194e-05 0)
(10 1.64205e-06 7.69967e-21)
(10 1.17158e-07 0)
(10 7.8988e-09 3.93178e-18)
(10 4.87665e-10 -5.90704e-18)
(10 2.80844e-11 2.93799e-18)
(10 1.362e-13 -9.82794e-19)
(10 -2.61729e-11 0)
(10 -4.5675e-10 0)
(10 -7.40227e-09 3.92156e-18)
(10 -1.09779e-07 -1.17788e-17)
(10 -1.53774e-06 7.84589e-18)
(9.99999 -2.00448e-05 -7.85098e-18)
(9.99991 -0.000233681 7.84545e-18)
(9.99908 -0.00222887 0)
(9.99073 -0.0216775 0)
(9.93134 -0.152176 0)
(9.5231 -1.04111 -9.5712e-22)
(9.34021 -0.955994 -1.56606e-17)
(9.54657 0.785064 -2.67279e-21)
(9.6616 0.847864 1.46034e-17)
(9.95749 0.108864 -1.45671e-17)
(9.99482 0.0139467 0)
(9.99954 0.0012861 0)
(9.99996 0.000125704 8.90424e-22)
(10 9.81226e-06 7.29904e-18)
(10 6.90891e-07 -7.29298e-18)
(10 4.5552e-08 3.56326e-21)
(10 2.86867e-09 3.56373e-21)
(10 1.64797e-10 3.56417e-21)
(10 8.94274e-12 -8.91148e-22)
(10 -1.5654e-14 -8.91245e-22)
(10 -8.74366e-12 1.82189e-18)
(10 -1.63579e-10 -1.82919e-18)
(10 -2.85095e-09 4.45749e-21)
(10 -4.52777e-08 4.45785e-21)
(10 -6.88014e-07 0)
(10 -9.79345e-06 -7.30029e-18)
(9.99996 -0.000125819 7.30249e-18)
(9.99954 -0.00128701 0)
(9.9948 -0.0140338 -1.46091e-17)
(9.95732 -0.109766 1.46147e-17)
(9.65639 -0.860406 8.92274e-22)
(9.57226 -0.798638 -1.46227e-17)
(9.65161 0.716705 3.39027e-21)
(9.70773 0.76772 0)
(9.96725 0.0896289 0)
(9.99633 0.0105524 -6.95326e-18)
(9.99971 0.000891775 6.94713e-18)
(9.99998 8.2673e-05 0)
(10 5.96253e-06 6.94534e-18)
(10 3.90373e-07 -6.95281e-18)
(10 2.40132e-08 3.47842e-18)
(10 1.42638e-09 -3.47872e-18)
(10 7.67406e-11 1.7344e-18)
(10 4.01976e-12 -1.74471e-18)
(10 -9.90365e-14 0)
(10 -4.19177e-12 -1.73474e-18)
(10 -7.96753e-11 1.74162e-18)
(10 -1.48075e-09 -3.39513e-21)
(10 -2.49186e-08 -3.39526e-21)
(10 -4.04388e-07 6.79075e-21)
(10 -6.16705e-06 6.9505e-18)
(9.99997 -8.52193e-05 -6.95064e-18)
(9.99969 -0.000919126 -6.79113e-21)
(9.99617 -0.0108124 -6.79118e-21)
(9.96573 -0.0917347 0)
(9.69776 -0.776512 -6.79692e-21)
(9.61863 -0.724045 3.39516e-21)
(9.66209 0.628838 1.25926e-23)
(9.75328 0.673015 0)
(9.9741 0.0735637 1.2576e-23)
(9.99731 0.00804268 6.42526e-21)
(9.9998 0.00064036 -1.25719e-23)
(9.99998 5.67068e-05 -6.59017e-18)
(10 3.84923e-06 6.58901e-18)
(10 2.38211e-07 0)
(10 1.3887e-08 -6.43223e-21)
(10 7.85506e-10 -1.25605e-23)
(10 4.00202e-11 -1.25581e-23)
(10 2.1573e-12 6.441e-21)
(10 1.78979e-13 0)
(10 -1.97948e-12 0)
(10 -3.73714e-11 -1.25476e-23)
(10 -7.30502e-10 -1.25448e-23)
(10 -1.29292e-08 -3.28782e-18)
(10 -2.22383e-07 9.85471e-18)
(10 -3.6017e-06 -6.57252e-18)
(9.99999 -5.33398e-05 0)
(9.99982 -0.000603226 -6.56283e-18)
(9.99755 -0.00763279 6.57411e-18)
(9.9764 -0.069901 1.25236e-23)
(9.77178 -0.650451 6.41304e-21)
(9.69741 -0.607781 1.2525e-23)
(9.74564 0.531026 -6.47539e-20)
(9.81375 0.566825 -6.53165e-20)
(9.98222 0.0563461 1.25236e-17)
(9.99827 0.00576288 -6.27364e-18)
(9.99988 0.000427976 6.26326e-18)
(9.99999 3.6409e-05 -6.2713e-18)
(10 2.31442e-06 6.27317e-18)
(10 1.35671e-07 -3.1375e-18)
(10 7.49498e-09 3.13841e-18)
(10 4.05458e-10 1.19755e-23)
(10 1.96161e-11 1.19788e-23)
(10 8.04831e-13 -1.19821e-23)
(10 7.96971e-14 7.79094e-19)
(10 -1.11737e-12 7.85686e-19)
(10 -2.15465e-11 -1.57791e-18)
(10 -4.40893e-10 1.19949e-23)
(10 -8.13489e-09 6.29039e-18)
(10 -1.46928e-07 -1.25778e-17)
(10 -2.50251e-06 6.2935e-18)
(9.99999 -3.92062e-05 0)
(9.99986 -0.000459466 -1.20097e-23)
(9.99806 -0.00615791 1.20124e-23)
(9.98008 -0.0602401 -1.20146e-23)
(9.79316 -0.59817 -1.25471e-17)
(9.73395 -0.561318 1.2664e-17)
(9.78423 0.493626 1.17861e-20)
(9.83148 0.524702 0)
(9.98502 0.0488922 0)
(9.99863 0.00470198 5.89119e-21)
(9.99991 0.000330561 1.17819e-20)
(9.99999 2.72595e-05 0)
(10 1.64143e-06 6.02586e-18)
(10 9.18038e-08 -6.03731e-18)
(10 4.84261e-09 5.88972e-21)
(10 2.52344e-10 -5.88936e-21)
(10 1.15857e-11 -1.50758e-18)
(10 5.52842e-13 1.51336e-18)
(10 1.1609e-13 3.88494e-19)
(10 -6.46299e-13 -3.76813e-19)
(10 -1.19341e-11 1.51302e-18)
(10 -2.56194e-10 -4.52102e-18)
(10 -4.92331e-09 3.00787e-18)
(10 -9.30846e-08 -5.8857e-21)
(10 -1.66105e-06 5.88515e-21)
(9.99999 -2.74449e-05 -6.0258e-18)
(9.99991 -0.000333975 -5.84925e-21)
(9.99861 -0.00471061 4.64203e-22)
(9.98475 -0.048905 6.03004e-18)
(9.83161 -0.517535 5.88562e-21)
(9.73968 -0.485525 5.88022e-21)
(9.75349 0.438458 1.16485e-17)
(9.85331 0.466188 -1.15567e-17)
(9.98743 0.0416855 0)
(9.99891 0.00379564 -5.79684e-18)
(9.99993 0.000257219 -5.68597e-21)
(10 2.05223e-05 5.79523e-18)
(10 1.18518e-06 5.79653e-18)
(10 6.3759e-08 -5.78509e-18)
(10 3.24084e-09 -5.6535e-21)
(10 1.63139e-10 -2.88816e-18)
(10 7.22609e-12 1.44792e-18)
(10 2.25608e-13 1.44187e-18)
(10 1.81798e-13 -5.64473e-21)
(10 -1.23241e-13 0)
(10 -6.41701e-12 0)
(10 -1.41253e-10 0)
(10 -2.80996e-09 5.64078e-21)
(10 -5.56498e-08 1.40978e-21)
(10 -1.0386e-06 -7.04681e-21)
(10 -1.82065e-05 0)
(9.99994 -0.000228123 5.63406e-21)
(9.99911 -0.00342136 1.40808e-21)
(9.98968 -0.0375396 -7.03798e-21)
(9.87548 -0.434546 -1.14941e-17)
(9.81137 -0.408843 1.15768e-17)
(9.8245 0.344178 5.56164e-18)
(9.90434 0.365955 -1.10834e-17)
(9.9925 0.0297187 1.10974e-17)
(9.99938 0.00258899 -5.54596e-18)
(9.99996 0.000165281 -5.559e-18)
(10 1.2838e-05 5.55416e-18)
(10 6.99838e-07 2.77466e-18)
(10 3.61798e-08 -2.78512e-18)
(10 1.76076e-09 1.38489e-18)
(10 8.58341e-11 -2.77616e-18)
(10 3.81122e-12 2.08555e-18)
(10 -1.1345e-14 -8.70999e-19)
(10 -1.05941e-13 1.73986e-19)
(10 6.54697e-14 -5.43885e-21)
(10 -4.26988e-12 2.78627e-18)
(10 -9.87495e-11 -2.79263e-18)
(10 -2.01937e-09 5.44551e-21)
(10 -4.1361e-08 5.5821e-18)
(10 -7.99239e-07 6.8112e-21)
(10 -1.45715e-05 -5.57616e-18)
(9.99995 -0.000186834 0)
(9.99924 -0.00290564 5.58898e-18)
(9.99081 -0.0335785 -5.58564e-18)
(9.88417 -0.404827 -1.11348e-17)
(9.81661 -0.381979 4.05587e-20)
(9.88425 0.325162 -5.41373e-18)
(9.91518 0.343525 5.38272e-18)
(9.99385 0.0261158 2.63552e-21)
(9.99951 0.00216932 -7.90584e-21)
(9.99997 0.000131994 2.63498e-21)
(10 1.01167e-05 5.39847e-18)
(10 5.26509e-07 -2.69497e-18)
(10 2.63177e-08 -2.69201e-18)
(10 1.23602e-09 5.2675e-21)
(10 5.88834e-11 -5.26686e-21)
(10 2.25332e-12 2.6331e-21)
(10 2.07372e-13 -2.6316e-21)
(10 -6.89259e-14 0)
(10 -8.37898e-14 9.75636e-36)
(10 -2.18989e-12 -1.34483e-18)
(10 -5.80916e-11 1.35255e-18)
(10 -1.22433e-09 -2.69947e-18)
(10 -2.59869e-08 -2.6307e-21)
(10 -5.1905e-07 2.69084e-18)
(10 -9.91472e-06 -7.88993e-21)
(9.99997 -0.000130302 -5.38542e-18)
(9.99952 -0.00212304 5.37679e-18)
(9.99394 -0.025459 0)
(9.91816 -0.330892 -5.37337e-18)
(9.84306 -0.311962 5.40332e-18)
(9.85079 0.299903 0)
(9.92137 0.316916 -5.26172e-18)
(9.99441 0.0235732 5.25318e-18)
(9.99957 0.00188209 2.56674e-21)
(9.99998 0.000112038 2.56637e-21)
(10 8.38487e-06 -5.25741e-18)
(10 4.242e-07 5.25695e-18)
(10 2.06251e-08 2.62712e-18)
(10 9.4388e-10 3.20606e-22)
(10 4.39964e-11 -2.62601e-18)
(10 1.64709e-12 -2.56406e-21)
(10 -3.56484e-14 2.88348e-21)
(10 7.97957e-14 0)
(10 4.11119e-14 5.12365e-21)
(10 -1.50517e-12 -2.56245e-21)
(10 -3.91456e-11 1.31176e-18)
(10 -8.38411e-10 -1.31123e-18)
(10 -1.84365e-08 -2.56119e-21)
(10 -3.79937e-07 -2.88087e-21)
(10 -7.5977e-06 2.56034e-21)
(9.99998 -0.000101156 -5.24268e-18)
(9.99964 -0.00172572 2.72403e-21)
(9.99535 -0.0215148 5.24094e-18)
(9.93237 -0.298507 0)
(9.89116 -0.28262 5.24184e-18)
(9.8857 0.237452 -1.02062e-17)
(9.94821 0.251253 5.08182e-18)
(9.99656 0.017281 5.09399e-18)
(9.99975 0.00134807 -5.0948e-18)
(9.99999 7.67443e-05 0)
(10 5.65021e-06 -3.11087e-22)
(10 2.73436e-07 0)
(10 1.29563e-08 -3.11204e-22)
(10 5.73944e-10 -3.11262e-22)
(10 2.62785e-11 0)
(10 9.01862e-13 0)
(10 -1.449e-13 -3.11364e-22)
(10 1.65093e-13 0)
(10 -8.57186e-15 0)
(10 -1.23164e-12 -1.27632e-18)
(10 -2.92235e-11 1.27655e-18)
(10 -6.42508e-10 -3.11713e-22)
(10 -1.4463e-08 -2.554e-18)
(10 -3.05349e-07 2.55476e-18)
(10 -6.27663e-06 0)
(9.99998 -8.50725e-05 5.11066e-18)
(9.9997 -0.00148349 -1.0223e-17)
(9.99588 -0.0192128 1.02235e-17)
(9.93871 -0.27419 -1.5458e-20)
(9.87862 -0.259869 -5.13129e-18)
(9.93127 0.226594 1.2199e-21)
(9.95403 0.238452 -1.21929e-21)
(9.99714 0.0155551 0)
(9.99979 0.001172 0)
(9.99999 6.43519e-05 0)
(10 4.71968e-06 1.21832e-21)
(10 2.202e-07 0)
(10 1.01993e-08 -1.21807e-21)
(10 4.39798e-10 0)
(10 1.98569e-11 -1.21781e-21)
(10 8.13454e-13 0)
(10 -1.73351e-13 -3.11553e-19)
(10 -6.45372e-15 3.10312e-19)
(10 1.50438e-13 0)
(10 -6.22095e-13 1.24635e-18)
(10 -1.88753e-11 -2.49243e-18)
(10 -4.20581e-10 1.24486e-18)
(10 -9.73205e-09 0)
(10 -2.09964e-07 2.49157e-18)
(10 -4.48426e-06 -2.49129e-18)
(9.99999 -6.15521e-05 4.98077e-18)
(9.99981 -0.00111561 -4.98141e-18)
(9.99731 -0.014728 0)
(9.9574 -0.224521 0)
(9.90644 -0.212624 0)
(9.90073 0.21409 -1.19701e-21)
(9.95526 0.225317 1.19657e-21)
(9.99723 0.0145691 0)
(9.99981 0.00106522 0)
(9.99999 5.77854e-05 0)
(10 4.15977e-06 -1.19584e-21)
(10 1.90477e-07 0)
(10 8.64461e-09 1.19564e-21)
(10 3.66215e-10 0)
(10 1.61426e-11 -1.22292e-18)
(10 4.61576e-13 1.22314e-18)
(10 -3.10096e-14 -1.19495e-21)
(10 4.37962e-14 1.19461e-21)
(10 4.84213e-14 1.19473e-21)
(10 -5.56024e-13 0)
(10 -1.4494e-11 0)
(10 -3.2892e-10 1.19466e-21)
(10 -7.82132e-09 -2.44643e-18)
(10 -1.72456e-07 2.4462e-18)
(10 -3.81351e-06 0)
(9.99999 -5.26187e-05 1.1942e-21)
(9.99984 -0.00098644 0)
(9.99773 -0.0134043 0)
(9.96167 -0.214177 0)
(9.93809 -0.203695 0)
(9.91898 0.168976 -4.79691e-18)
(9.97084 0.178259 4.77516e-18)
(9.9983 0.0107618 0)
(9.99988 0.000780784 -2.3374e-21)
(9.99999 4.08073e-05 0)
(10 2.90534e-06 -2.39427e-18)
(10 1.28293e-07 4.78698e-18)
(10 5.72335e-09 -2.3927e-18)
(10 2.36083e-10 -1.20005e-18)
(10 1.01862e-11 1.1979e-18)
(10 4.37666e-13 5.84748e-22)
(10 1.12446e-13 1.55601e-19)
(10 -1.22396e-13 -1.49742e-19)
(10 -1.29284e-13 1.19253e-18)
(10 -3.02671e-13 -1.19858e-18)
(10 -1.18508e-11 0)
(10 -2.74421e-10 -2.3422e-21)
(10 -6.62356e-09 0)
(10 -1.48616e-07 0)
(10 -3.33997e-06 -2.39952e-18)
(9.99999 -4.68485e-05 2.40222e-18)
(9.99985 -0.000885786 0)
(9.99781 -0.0124074 4.79794e-18)
(9.96332 -0.200172 -1.35457e-20)
(9.91081 -0.190357 -9.62059e-18)
(9.95421 0.161955 4.71607e-18)
(9.97431 0.169997 2.30251e-21)
(9.99858 0.00984892 4.71359e-18)
(9.9999 0.000694513 -2.35425e-18)
(10 3.53502e-05 -2.35643e-18)
(10 2.52131e-06 0)
(10 1.08127e-07 1.15043e-21)
(10 4.74805e-09 2.35475e-18)
(10 1.9183e-10 -2.35341e-18)
(10 8.35534e-12 0)
(10 2.18367e-13 0)
(10 -9.77875e-14 -3.44842e-21)
(10 7.78659e-14 4.59854e-21)
(10 -1.83301e-14 2.29891e-21)
(10 -1.72944e-13 5.89669e-19)
(10 -7.88529e-12 -5.88601e-19)
(10 -1.82866e-10 1.14952e-21)
(10 -4.51501e-09 2.35402e-18)
(10 -1.02719e-07 -4.70766e-18)
(10 -2.38318e-06 2.35363e-18)
(10 -3.37044e-05 -2.29828e-21)
(9.99991 -0.000658907 0)
(9.99864 -0.00926693 2.29786e-21)
(9.97596 -0.159003 4.70111e-18)
(9.92855 -0.150867 -9.43321e-18)
(9.92772 0.153945 -4.65383e-18)
(9.97448 0.161568 -4.65119e-18)
(9.99858 0.00934463 4.64729e-18)
(9.99991 0.000643473 2.32413e-18)
(10 3.25646e-05 -2.32455e-18)
(10 2.28811e-06 0)
(10 9.69614e-08 5.67305e-22)
(10 4.1933e-09 -1.7018e-21)
(10 1.67426e-10 1.16169e-18)
(10 7.0704e-12 -2.32322e-18)
(10 8.83098e-14 1.16128e-18)
(10 -5.61387e-14 2.89669e-19)
(10 1.92953e-13 -2.7157e-19)
(10 6.4117e-14 2.69889e-19)
(10 -2.64609e-13 -2.91311e-19)
(10 -6.27379e-12 0)
(10 -1.49581e-10 1.70077e-21)
(10 -3.77269e-09 -5.66883e-22)
(10 -8.71844e-08 -2.32179e-18)
(10 -2.08442e-06 2.32106e-18)
(10 -2.94254e-05 0)
(9.99993 -0.000591892 0)
(9.99888 -0.008513 -5.66676e-22)
(9.97896 -0.152219 -4.63558e-18)
(9.95982 -0.145122 8.55049e-21)
(9.93915 0.118906 -2.29241e-18)
(9.98399 0.125194 2.28264e-18)
(9.99915 0.00680856 5.57875e-22)
(9.99994 0.00047115 0)
(10 2.30729e-05 2.28618e-18)
(10 1.60969e-06 -2.28367e-18)
(10 6.61922e-08 5.58147e-22)
(10 2.83237e-09 5.58214e-22)
(10 1.10684e-10 2.23312e-21)
(10 4.83566e-12 -2.85873e-19)
(10 3.29033e-13 1.42891e-19)
(10 -1.76584e-13 2.80792e-19)
(10 -2.52723e-13 -1.43482e-19)
(10 1.32598e-13 5.74122e-19)
(10 -7.20551e-14 -5.71833e-19)
(10 -5.50781e-12 0)
(10 -1.32537e-10 1.67641e-21)
(10 -3.375e-09 -2.28634e-18)
(10 -7.90278e-08 2.28716e-18)
(10 -1.90587e-06 5.58999e-22)
(10 -2.728e-05 0)
(9.99993 -0.000548847 0)
(9.99885 -0.00810787 5.59185e-22)
(9.97879 -0.144634 -4.57501e-18)
(9.93337 -0.137917 4.59434e-18)
(9.96854 0.11438 2.20902e-21)
(9.98624 0.119832 0)
(9.99931 0.0063092 -1.10329e-21)
(9.99995 0.000426109 -2.25832e-18)
(10 2.04748e-05 2.26039e-18)
(10 1.43688e-06 -2.26137e-18)
(10 5.77145e-08 2.26014e-18)
(10 2.44321e-09 -1.12946e-18)
(10 9.38444e-11 1.12719e-18)
(10 3.77934e-12 -5.64664e-19)
(10 2.06314e-13 5.64386e-19)
(10 1.0202e-13 -2.77768e-19)
(10 7.54884e-14 3.175e-19)
(10 -1.74434e-15 -3.74723e-20)
(10 -2.25819e-13 5.65357e-19)
(10 -3.72363e-12 -1.12783e-18)
(10 -8.81121e-11 -5.6664e-19)