/*--------------------------------*- C++ -*----------------------------------*\
| =========                 |                                                 |
| \\      /  F ield         | OpenFOAM: The Open Source CFD Toolbox           |
|  \\    /   O peration     | Version:  2112                                  |
|   \\  /    A nd           | Website:  www.openfoam.com                      |
|    \\/     M anipulation  |                                                 |
\*---------------------------------------------------------------------------*/
FoamFile
{
    version     2.0;
    format      ascii;
    arch        "LSB;label=32;scalar=64";
    class       surfaceScalarField;
    location    "0.00342";
    object      phi;
}
// * * * * * * * * * * * * * * * * * * * * * * * * * * * * * * * * * * * * * //

dimensions      [1 0 -1 0 0 0 0];

oriented        oriented;

internalField   nonuniform List<scalar> 
27436
(
-0.533363
8.19272
-0.0932043
7.47158
-0.0832978
7.78609
-0.0693658
7.78651
-0.069492
7.7929
-0.0543903
7.78188
-0.0401385
7.78247
-0.028871
7.78504
-0.0204116
7.78856
-0.0138184
7.79042
-0.00754202
7.79053
0.000369701
7.78904
0.0137494
7.78396
0.0314306
7.78043
0.0464779
7.78243
0.0538002
7.78937
0.0547002
7.79402
0.0629102
7.78823
0.0746349
7.7844
0.0942416
7.77802
0.0963189
7.79088
0.111539
7.78573
0.124073
7.78238
0.574361
7.46278
8.21847
-0.247239
8.43996
-0.0963352
7.32067
-0.0818475
7.77159
-0.0567912
7.76142
-0.0554216
7.79155
-0.047337
7.77388
-0.0380997
7.77335
-0.0405121
7.7877
-0.0224461
7.76962
-0.0122083
7.77896
0.0002188
7.77708
0.0171701
7.77203
0.0158935
7.7844
0.0213984
7.77438
0.0209565
7.78284
0.0390083
7.77109
0.0514425
7.78161
0.0719001
7.76718
0.0678706
7.78863
0.0751819
7.77088
0.0721045
7.79396
0.102846
7.75494
0.114454
7.771
0.267702
7.30928
8.47897
-0.227272
8.66722
-0.141201
7.2346
-0.120677
7.75108
-0.107544
7.74834
-0.09819
7.78219
-0.0935898
7.76936
-0.0909121
7.77085
-0.0895075
7.78634
-0.0650614
7.74633
-0.0523385
7.76909
-0.0346203
7.75941
-0.0179625
7.76082
-0.0130048
7.77942
-0.0110776
7.77241
-0.00692326
7.7788
0.0150276
7.74874
0.0280042
7.76876
0.0513404
7.74353
0.0539648
7.78612
0.0535666
7.77135
0.0618218
7.78569
0.0782607
7.73855
0.100539
7.7491
0.192523
7.21506
8.66845
-0.169658
8.83688
-0.139564
7.20451
-0.134307
7.74585
-0.112112
7.72615
-0.10459
7.77464
-0.0994073
7.76426
-0.0962524
7.76787
-0.0844029
7.7744
-0.0632929
7.72547
-0.0474569
7.75456
-0.024857
7.73712
-0.0085409
7.74684
0.00209273
7.76866
0.00549539
7.76905
0.0147967
7.76964
0.0397443
7.72397
0.0541826
7.75449
0.0761976
7.72166
0.0871406
7.7752
0.0866969
7.77178
0.0914911
7.78087
0.117902
7.7123
0.111043
7.75609
0.162134
7.16323
8.83562
-0.0737061
8.91059
-0.0364916
7.16731
-0.0914073
7.8008
-0.0584693
7.69328
-0.0593432
7.77547
-0.0594214
7.76437
-0.0599671
7.76857
-0.0495513
7.7638
-0.0317304
7.70795
-0.0171508
7.74151
0.00158931
7.71937
0.0167937
7.73396
0.0267239
7.75893
0.0277472
7.76825
0.0351291
7.76241
0.0590575
7.70032
0.06856
7.74514
0.0873837
7.70266
0.0979473
7.76458
0.0929544
7.77672
0.0929651
7.78082
0.123343
7.68208
0.0893294
7.79024
0.0965266
7.15667
8.93876
0.118139
8.79247
0.0437428
7.24172
-0.0488035
7.89338
-0.00742172
7.65188
-0.0216202
7.78961
-0.0293642
7.77206
-0.034341
7.77359
-0.0281086
7.75728
-0.0155049
7.69552
-0.00505016
7.73137
0.0101061
7.70852
0.0206874
7.72584
0.0268785
7.75336
0.0244556
7.77124
0.0284215
7.75869
0.047385
7.68112
0.0519842
7.74067
0.0642352
7.69014
0.0717194
7.75695
0.0622941
7.78602
0.0475146
7.79554
0.0861456
7.64352
-0.0145872
7.89094
-0.0209087
7.16319
8.92067
0.30436
8.48814
0.136152
7.40997
-0.00427839
8.03436
0.0282913
7.6188
-0.0110635
7.82891
-0.0436843
7.80461
-0.0704057
7.80028
-0.0823922
7.76909
-0.0904476
7.703
-0.104236
7.74239
-0.104274
7.71775
-0.1163
7.74162
-0.126819
7.76482
-0.148317
7.79343
-0.162601
7.77313
-0.160558
7.67881
-0.180903
7.76112
-0.19129
7.7003
-0.203294
7.7688
-0.236149
7.81876
-0.26812
7.82746
-0.288186
7.66368
-0.354821
7.95738
-0.658506
7.46698
8.26248
0.873375
7.61483
0.521798
7.76163
0.414384
8.14188
0.338581
7.69458
0.277636
7.88974
0.225113
7.85695
0.182499
7.84277
0.15628
7.79551
0.130904
7.72734
0.104475
7.76364
0.0891561
7.74338
0.066617
7.76722
0.0401415
7.7927
0.00610849
7.82808
-0.0187134
7.79814
-0.0381445
7.69819
-0.0678131
7.79083
-0.0955749
7.72784
-0.123234
7.79629
-0.172449
7.86782
-0.233264
7.88821
-0.283039
7.71353
-0.407255
8.08137
-0.694309
7.75414
7.56509
0.594129
7.02085
0.410075
7.94583
0.24068
8.31128
0.195714
7.73946
0.141938
7.94334
0.10208
7.89652
0.077537
7.86709
0.0712173
7.80269
0.068885
7.72841
0.0683764
7.75727
0.0748173
7.74454
0.0792394
7.76568
0.0793655
7.79421
0.0758711
7.83204
0.0777122
7.79641
0.0763588
7.6995
0.0725455
7.79471
0.0655256
7.73466
0.0584007
7.80333
0.0227699
7.90338
-0.0315815
7.94254
-0.049489
7.73144
-0.220217
8.25175
-0.372844
7.90648
7.18809
-3.03562
10.0569
-3.3713
8.28186
-2.7544
7.69444
-2.61171
7.59655
-2.30501
7.63616
-2.00333
7.59474
-1.70573
7.56998
-1.38034
7.47932
-1.09451
7.44094
-0.799412
7.45815
-0.502687
7.4514
-0.203426
7.46757
0.0999261
7.49189
0.409886
7.52221
0.707981
7.49835
0.977601
7.42977
1.29139
7.48101
1.56061
7.46539
1.90039
7.46347
2.20464
7.59904
2.50552
7.64168
2.63368
7.60334
3.21135
7.67379
2.9365
8.18056
10.124
-4.22697
14.2848
-4.35028
8.40591
-4.12508
7.46901
-3.80825
7.27838
-3.37134
7.19789
-2.89885
7.12266
-2.40791
7.08205
-1.93938
7.01359
-1.49015
6.99067
-1.03387
7.00101
-0.579858
6.99873
-0.117455
7.00467
0.349479
7.0248
0.830636
7.0409
1.29067
7.03826
1.70821
7.01224
2.16869
7.02073
2.62157
7.01266
3.07966
7.00549
3.61293
7.06583
4.08253
7.17225
4.39736
7.28851
4.58016
7.49131
4.51897
8.24131
14.645
-2.68622
16.973
-4.94054
10.6621
-4.92996
7.45653
-4.20517
6.54988
-3.81863
6.80929
-3.34357
6.65126
-2.8011
6.54645
-2.28417
6.50004
-1.77927
6.48439
-1.26828
6.48969
-0.764142
6.49555
-0.251595
6.49064
0.270571
6.50104
0.80214
6.50888
1.3203
6.51991
1.79704
6.53582
2.29365
6.52451
2.80445
6.50216
3.3072
6.50309
3.80566
6.56778
4.25953
6.71893
5.0304
6.51811
4.84219
7.68015
2.71664
10.3673
17.363
2.37217
14.6017
0.634393
12.4012
-4.7836
12.8724
-3.83475
5.59545
-4.05464
7.02862
-3.54988
6.1557
-2.9804
5.98744
-2.45385
5.97655
-1.94334
5.97017
-1.41367
5.957
-0.873392
5.95418
-0.329221
5.94441
0.229551
5.93924
0.791614
5.94595
1.34176
5.96947
1.87364
6.00443
2.38842
6.01066
2.88437
6.007
3.41671
5.97168
3.92019
6.06481
3.83618
6.80432
4.87376
5.48217
-0.441075
12.9972
-2.37656
12.3034
14.9869
2.462
12.1395
3.27014
11.5927
3.70529
12.4373
-0.617365
9.92311
-4.37355
10.7838
-3.96017
5.754
-3.30022
5.33804
-2.84614
5.52461
-2.27102
5.3906
-1.71486
5.39467
-1.12843
5.3641
-0.560336
5.37509
0.0271405
5.34954
0.6184
5.35464
1.21145
5.37736
1.79242
5.42468
2.36684
5.43762
2.80781
5.56658
3.3632
5.41801
3.58897
5.84637
-0.30252
10.695
-4.58826
9.77261
-3.8743
12.2862
-2.93465
11.3645
12.0531
1.69309
10.4467
3.42804
9.85886
5.05266
10.8131
5.5134
9.46505
4.83406
11.4683
1.21105
9.3823
-0.529032
7.08243
-1.26971
6.27316
-1.15323
5.27582
-0.881541
5.11937
-0.468394
4.94648
-0.0568444
4.96345
0.39593
4.89633
0.826867
4.9241
1.265
4.93995
1.60218
5.0888
1.77745
5.26451
1.15058
6.19801
-0.784697
7.34857
-4.19435
9.25925
-4.69368
11.2012
-4.19453
9.27599
-2.53428
10.6285
-1.16158
9.99531
10.8935
0.779896
9.66757
1.66082
8.97993
2.84926
9.62822
3.52006
8.79701
3.31448
11.6813
1.79793
10.9105
0.414918
8.48668
-0.277282
6.99042
-0.232068
5.26119
-0.131197
5.04834
-0.00506601
4.85166
0.026057
4.96282
0.106022
4.84955
0.18244
4.8799
0.320557
4.83412
0.453951
4.98573
0.550265
5.19602
0.12964
6.65569
-1.14745
8.6227
-2.36131
10.4828
-2.67908
11.5312
-2.11141
8.7172
-1.25955
9.77997
-0.394832
9.1331
10.5017
1.5991
8.07153
2.21488
8.3706
2.33917
9.516
1.47872
9.67265
0.0194186
13.1548
-0.214969
11.1355
0.657417
7.61263
0.898516
6.75355
0.624846
5.54211
0.459995
5.22036
0.252084
5.06486
0.146617
5.07084
-0.0157772
5.01335
-0.163553
5.0282
-0.399518
5.07001
-0.641453
5.2262
-1.03259
5.58795
-1.03545
6.66227
-0.210046
7.79619
-0.500834
10.7825
-1.94959
12.9909
-2.74542
9.51724
-2.61994
9.66316
-2.17424
8.69263
8.33142
1.73718
6.34218
1.67471
8.44204
0.844941
10.3555
0.0769433
10.4459
1.7356
11.5117
2.67663
10.2
2.2687
8.00439
2.02513
6.98431
1.39301
6.16753
0.844221
5.76334
0.343793
5.56114
-0.100683
5.51025
-0.548575
5.45627
-1.01502
5.48921
-1.52334
5.57312
-2.08067
5.77861
-2.66573
6.16727
-2.97252
6.9634
-3.2738
8.0912
-2.51977
10.016
-0.871743
11.3495
-2.27804
10.942
-3.02096
10.422
-2.51153
8.19403
5.8261
3.31509
3.03371
5.4329
6.33192
5.98646
9.8103
6.01489
10.4218
6.57258
10.9541
6.13281
10.6375
4.99115
9.14015
4.01747
7.95339
3.08847
7.09253
2.24856
6.59809
1.45267
6.35164
0.689845
6.26738
-0.0795752
6.22034
-0.839356
6.24412
-1.62214
6.35232
-2.42843
6.58208
-3.31289
7.04823
-4.25099
7.89812
-5.28691
9.12225
-5.83908
10.5656
-5.42455
10.9403
-5.05126
10.5741
-5.05529
10.4306
-2.8625
6.01446
2.97122
1.54356
1.49415
3.96706
3.91801
4.98356
8.80563
5.64293
9.76572
6.29486
10.3007
6.23176
10.6957
5.2611
10.1084
4.08546
9.12643
2.99124
8.18365
2.03661
7.54917
1.1664
7.21799
0.312799
7.11736
-0.537587
7.06742
-1.40159
7.10546
-2.28556
7.234
-3.26364
7.55808
-4.4095
8.19171
-5.67521
9.16241
-6.73485
10.181
-6.83292
10.6644
-6.16221
10.2719
-5.38795
9.80189
-3.7197
8.76658
-1.45791
3.77281
1.51792
0.0642599
1.43439
-0.0974243
4.08957
1.5952
7.11877
2.9118
8.45107
3.79673
9.41479
4.07447
10.4158
3.65468
10.526
2.96381
9.81481
2.22592
8.91976
1.51529
8.25776
0.811816
7.91885
0.122303
7.80488
-0.58257
7.77085
-1.28303
7.80444
-2.00973
7.95914
-2.76926
8.31609
-3.57981
9.00107
-4.33906
9.92185
-4.7226
10.5646
-4.32488
10.2678
-3.35683
9.30416
-1.92076
8.36846
-0.146803
7.00028
-0.135859
3.76787
1.38552
-0.916849
2.35457
-0.97074
4.14941
0.22141
5.93152
1.16729
7.50867
1.92267
8.66086
2.24561
10.092
2.22353
10.5453
1.96017
10.0769
1.55503
9.32482
1.102
8.70972
0.642664
8.3772
0.159663
8.28774
-0.321488
8.25202
-0.811047
8.29376
-1.2754
8.42253
-1.72894
8.76847
-2.12886
9.40042
-2.35777
10.1519
-2.33278
10.5409
-1.94438
9.87997
-1.0949
8.45403
-0.14321
7.40788
1.0179
5.85731
0.934624
3.8549
2.31992
-0.857604
3.21837
-1.23686
4.53408
-0.871678
5.56924
-0.249916
6.88955
0.327721
8.08408
0.636181
9.78318
0.87755
10.3033
0.983423
9.97303
0.915251
9.39338
0.724963
8.89974
0.472736
8.6299
0.219088
8.54235
-0.0543337
8.52632
-0.303213
8.54258
-0.540606
8.6589
-0.708568
8.93504
-0.734897
9.426
-0.575432
9.99327
-0.293636
10.2603
-0.0380973
9.62381
0.580281
7.83446
1.23364
6.75547
1.48654
5.60764
0.911185
4.43289
3.23484
-0.741021
3.96657
-1.44908
5.24643
-1.69071
5.81405
-1.49322
6.69422
-1.21608
7.80894
-0.779029
9.34631
-0.348819
9.87625
-0.0717703
9.69699
0.0522937
9.26914
0.0826249
8.86996
0.0499485
8.66419
-0.037522
8.63127
-0.126729
8.61653
-0.216795
8.63278
-0.250492
8.69165
-0.217426
8.90035
-0.0916604
9.29872
0.191744
9.71036
0.663929
9.7895
1.14883
9.13896
1.40561
7.57598
1.63715
6.52338
1.47379
5.77689
0.665655
5.24543
3.91032
-0.417203
4.39523
-1.15912
5.99373
-1.67179
6.33031
-1.76108
6.78578
-1.6292
7.67789
-1.22633
8.94532
-0.768501
9.41991
-0.423964
9.35344
-0.200418
9.04561
-0.0928698
8.76342
-0.066984
8.63973
-0.0526723
8.61792
-0.0545507
8.61909
-0.0371937
8.61511
-0.00923992
8.66231
0.108373
8.78093
0.354796
9.04983
0.734824
9.32994
1.21895
9.30594
1.63785
8.71981
1.7282
7.48474
1.64842
6.60117
1.11776
6.31003
0.352797
6.0145
4.2718
-0.289908
4.69107
-1.1168
6.82297
-1.74289
6.95679
-1.95008
6.99281
-1.90675
7.63415
-1.53988
8.57918
-1.09737
8.97828
-0.716897
8.97286
-0.441615
8.7708
-0.249175
8.57168
-0.0979041
8.4893
0.0108089
8.50985
0.116104
8.51407
0.224005
8.50703
0.383191
8.50213
0.590279
8.57222
0.886417
8.75124
1.29226
8.92364
1.73302
8.8651
2.0912
8.36161
2.11802
7.45724
1.91408
6.80213
1.28131
6.94298
0.37087
6.92529
4.64417
-0.384092
5.07794
-1.43878
7.87203
-1.86602
7.38289
-2.21526
7.34145
-2.24095
7.66041
-1.96688
8.30568
-1.5521
8.56366
-1.14528
8.56736
-0.81029
8.43569
-0.571234
8.33238
-0.400893
8.31915
-0.22375
8.33272
-0.0572337
8.34752
0.124128
8.32528
0.309085
8.31615
0.549069
8.33082
0.887071
8.41085
1.29691
8.51252
1.69973
8.46263
1.96946
8.0921
1.96541
7.46134
1.64966
7.11569
1.21183
7.3816
0.236658
7.9048
4.88266
-0.398357
5.47841
-1.18725
8.66233
-1.62959
7.82602
-1.95032
7.66081
-2.01172
7.72152
-1.77948
8.0731
-1.42628
8.21129
-1.06664
8.2068
-0.762909
8.13073
-0.508439
8.07707
-0.266147
8.07669
-0.0636381
8.13045
0.145378
8.13842
0.351035
8.11947
0.597886
8.0686
0.868468
8.0592
1.18649
8.09086
1.56045
8.13787
1.9083
8.11393
2.09906
7.90076
2.02122
7.53909
1.6707
7.46456
1.23379
7.81951
0.472467
8.66966
5.35518
-0.520498
6.001
-1.13635
9.27816
-1.59263
8.28087
-1.78766
7.85573
-1.92855
7.86202
-1.79211
7.93654
-1.47171
7.89075
-1.11534
7.84948
-0.781483
7.79488
-0.497936
7.7923
-0.261293
7.83982
-0.0110027
7.88009
0.22624
7.9012
0.480051
7.86542
0.718442
7.82963
1.00202
7.77472
1.34217
7.74891
1.70893
7.76991
2.02355
7.79995
2.13246
7.79184
1.96746
7.70468
1.78707
7.64328
1.37813
8.22783
0.756647
9.29391
6.10781
-0.882137
6.88959
-1.36176
9.76022
-1.83234
8.75206
-2.00575
8.02755
-2.11534
7.97121
-2.00651
7.82599
-1.7358
7.61763
-1.41549
7.52598
-1.11465
7.49154
-0.837758
7.51434
-0.549467
7.55125
-0.293526
7.6244
-0.0235332
7.63128
0.238569
7.60359
0.535262
7.53226
0.824911
7.48409
1.12261
7.44972
1.43374
7.45727
1.69692
7.53576
1.78297
7.70521
1.70391
7.78369
1.51404
7.83152
1.10173
8.63922
0.573456
9.82438
6.68421
-0.601576
7.49826
-1.25168
10.4108
-1.6245
9.12307
-1.768
8.17099
-1.76527
7.9676
-1.68279
7.74176
-1.46293
7.39606
-1.18927
7.25087
-0.891829
7.19232
-0.600479
7.22196
-0.343365
7.29409
-0.0595519
7.34059
0.210341
7.36142
0.491766
7.32196
0.748457
7.27494
1.03657
7.19499
1.33816
7.1462
1.6158
7.1788
1.82048
7.33093
1.88108
7.644
1.86743
7.79772
1.6656
8.03193
1.36855
8.93398
0.816621
10.3777
7.51067
-0.274135
7.78374
-0.751599
10.8865
-1.49087
9.86218
-1.58422
8.26298
-1.60542
7.9867
-1.50424
7.63773
-1.30561
7.1941
-1.08368
7.02635
-0.848173
6.9548
-0.603383
6.97667
-0.319389
7.00992
-0.062263
7.08352
0.209753
7.08938
0.461457
7.07024
0.744996
6.99051
0.996542
6.94219
1.22877
6.91231
1.44445
6.96113
1.65315
7.12141
1.74941
7.54712
1.73195
7.81452
1.74174
8.02095
1.00897
9.66491
0.50605
10.8814
8.0237
-0.504312
8.2934
-0.929862
11.3135
-1.74732
10.6817
-1.74296
8.25908
-1.72838
7.97154
-1.61385
7.52113
-1.44539
7.02396
-1.22515
6.80632
-0.987659
6.71663
-0.725404
6.71339
-0.488549
6.77276
-0.213924
6.80857
0.0475429
6.82749
0.324993
6.79221
0.566203
6.74843
0.823587
6.68382
1.06676
6.66747
1.28026
6.74581
1.42686
6.97332
1.52742
7.44576
1.51554
7.8261
1.42429
8.1107
0.565729
10.5215
0.209554
11.2384
8.23626
-0.123753
8.40836
-0.489955
11.6811
-1.17386
11.369
-1.4688
8.55449
-1.48532
7.98672
-1.34613
7.37909
-1.17201
6.84825
-0.982102
6.61464
-0.78242
6.51532
-0.573827
6.50423
-0.305976
6.50432
-0.062137
6.56409
0.203456
6.56129
0.445561
6.54969
0.710285
6.48278
0.924007
6.46868
1.10996
6.47931
1.30248
6.55185
1.48216
6.79302
1.60751
7.31963
1.60643
7.82768
1.40341
8.31267
0.578467
11.3452
0.239999
11.5787
8.47795
0.0419286
8.35401
-0.117285
11.8386
-0.794955
12.0431
-1.37956
9.1393
-1.29558
7.90221
-1.2222
7.3057
-1.06931
6.69563
-0.9115
6.4574
-0.725502
6.32896
-0.499376
6.27684
-0.303179
6.30694
-0.061733
6.32158
0.164658
6.33391
0.405975
6.30747
0.601511
6.28623
0.816844
6.25259
1.00755
6.28722
1.1557
6.4014
1.30091
6.64478
1.38504
7.23324
1.57065
7.64035
0.811446
9.07023
0.225246
11.9307
-0.0171964
11.8238
8.46057
-0.259615
8.60445
-0.357107
11.9357
-0.73053
12.4155
-1.38762
9.79764
-1.36659
7.88172
-1.28495
7.2236
-1.11592
6.52412
-0.950665
6.29076
-0.781598
6.15763
-0.628171
6.1221
-0.395514
6.07297
-0.191282
6.11624
0.0401997
6.10131
0.249338
6.0976
0.482617
6.05206
0.647286
6.0866
0.801252
6.13107
0.966305
6.23514
1.12626
6.48397
1.17532
7.18367
1.12973
7.68485
0.373652
9.82569
-0.0822853
12.3871
-0.117977
11.8623
8.34341
-0.0820392
8.68797
0.0298725
11.8222
-0.250087
12.6941
-0.994898
10.5417
-1.14763
8.03514
-1.06183
7.13781
-0.950386
6.41109
-0.798939
6.13925
-0.634218
5.99201
-0.423624
5.91038
-0.258186
5.90622
-0.0418446
5.8986
0.157493
5.90071
0.374718
5.87931
0.535417
5.89025
0.729005
5.89216
0.902921
5.95564
1.04055
6.09482
1.15543
6.36551
1.30609
7.03088
1.11888
7.86891
0.369378
10.5724
0.146532
12.6093
0.208808
11.8023
8.55597
0.0625781
8.62864
0.165987
11.7277
0.217788
12.6409
-0.479345
11.2395
-1.05037
8.60566
-0.906798
6.99392
-0.824685
6.32791
-0.70651
6.02011
-0.554093
5.83801
-0.425425
5.781
-0.225929
5.70556
-0.0546205
5.72615
0.141892
5.70287
0.3069
5.71327
0.505568
5.69026
0.640296
5.75609
0.775004
5.8192
0.904911
5.96264
0.995219
6.27199
1.17792
6.84682
0.589826
8.45563
-0.0858876
11.244
-0.0581864
12.5833
0.0429672
11.7029
8.60379
-0.185074
8.81607
-0.172617
11.7309
0.0090095
12.4618
-0.398056
11.6462
-0.964765
9.17111
-1.01495
7.04304
-0.882563
6.1946
-0.784607
5.92046
-0.657466
5.70974
-0.468437
5.59099
-0.326266
5.56222
-0.139879
5.53853
0.0246687
5.53697
0.207497
5.52911
0.343925
5.55242
0.521586
5.57717
0.661462
5.67723
0.736718
5.8872
0.824894
6.18065
0.726356
6.94373
-0.00413288
9.18428
-0.47218
11.7074
-0.12721
12.2399
-0.0307915
11.6076
8.57761
-0.0345913
8.85204
0.0490838
11.6621
0.429013
12.0832
0.138429
11.9348
-0.599345
9.90679
-0.824108
7.26624
-0.672376
6.04158
-0.610746
5.85782
-0.479895
5.57721
-0.365496
5.4755
-0.188397
5.38393
-0.0382512
5.38718
0.135168
5.36205
0.281368
5.38153
0.459278
5.37292
0.575938
5.45943
0.690085
5.56191
0.766139
5.80841
0.947031
5.99625
0.695627
7.1933
-0.0739029
9.95154
-0.23076
11.8615
0.146953
11.8608
0.178199
11.5767
8.75932
0.0792734
8.77342
0.157668
11.5922
0.426599
11.8159
0.495962
11.8636
-0.0643783
10.4641
-0.550474
7.75016
-0.606006
6.09599
-0.531859
5.78218
-0.456919
5.50147
-0.301251
5.3185
-0.18422
5.26537
-0.0313856
5.23297
0.10588
5.22337
0.262451
5.22379
0.376419
5.25748
0.5299
5.30463
0.611273
5.47918
0.727243
5.69235
0.673648
6.0473
0.213082
7.65046
-0.411699
10.5755
-0.283539
11.7331
0.00533879
11.5697
0.0565648
11.5252
8.81642
-0.113426
8.88641
-0.0578141
11.5399
0.1673
11.5903
0.470575
11.5585
0.0220645
10.9101
-0.502359
8.27268
-0.65133
6.24348
-0.560935
5.68987
-0.471022
5.40961
-0.388437
5.23502
-0.243757
5.11944
-0.120619
5.10866
0.0219233
5.07939
0.147018
5.09765
0.291027
5.11247
0.368185
5.22721
0.441889
5.40457
0.532149
5.60216
0.282643
6.29492
-0.426509
8.35618
-0.776849
10.9245
-0.388411
11.347
-0.216949
11.3966
-0.147723
11.4561
8.66828
0.0390381
8.84471
0.105386
11.4733
0.274985
11.4187
0.653262
11.18
0.625719
10.9357
-0.0167412
8.91314
-0.443311
6.66937
-0.444734
5.68926
-0.36752
5.33067
-0.246858
5.11285
-0.154832
5.02556
-0.0237924
4.97663
0.0963835
4.95823
0.225105
4.96823
0.318864
5.01765
0.443572
5.10172
0.53866
5.30901
0.501009
5.63861
0.081085
6.71364
-0.525544
8.95901
-0.42684
10.8254
-0.117568
11.0399
0.0440195
11.2342
0.103698
11.3961
8.77118
0.173788
8.66859
0.298961
11.346
0.422165
11.2944
0.643677
10.9582
0.877864
10.7004
0.284429
9.50641
-0.166811
7.11995
-0.317033
5.8372
-0.264926
5.27685
-0.218455
5.06532
-0.122591
4.92924
-0.0246922
4.87825
0.0910052
4.84177
0.188631
4.87038
0.288416
4.91773
0.34396
5.04631
0.405343
5.24814
0.237463
5.80381
-0.251057
7.20005
-0.834097
9.54127
-0.468981
10.4612
-0.243768
10.8152
-0.1509
11.1404
-0.067717
11.3125
8.70319
-0.0181689
8.68357
0.0738001
11.2527
0.162892
11.2043
0.399547
10.7219
0.815136
10.2856
0.625307
9.69613
-0.021826
7.76611
-0.342671
6.15587
-0.326535
5.2598
-0.245208
4.98327
-0.173491
4.8562
-0.0815732
4.78631
0.0112698
4.74885
0.101197
4.7807
0.167001
4.85133
0.23661
4.97691
0.209029
5.27489
-0.140214
6.15058
-0.828435
7.88649
-0.91977
9.6328
-0.584703
10.1263
-0.356911
10.5871
-0.306342
11.0902
-0.157293
11.1624
8.54729
0.113478
8.56863
0.299492
11.0668
0.366738
11.1401
0.540406
10.549
0.820849
10.006
0.936483
9.58084
0.437756
8.26441
-0.0443361
6.6348
-0.172067
5.38646
-0.158276
4.96902
-0.0848158
4.78269
-0.0153021
4.71707
0.0648517
4.66862
0.136289
4.70961
0.211092
4.77678
0.235063
4.95329
0.0442389
5.46568
-0.46438
6.65747
-0.918985
8.34089
-0.673506
9.38844
-0.410745
9.86374
-0.240324
10.4155
-0.190753
11.0386
-0.0400728
11.01
8.50688
0.172019
8.39622
0.384941
10.8539
0.452633
11.074
0.584147
10.4196
0.814582
9.77624
1.18395
9.21178
0.882598
8.5656
0.190728
7.32387
-0.0482392
5.62415
-0.0846324
5.005
-0.0422135
4.73984
0.00675077
4.6687
0.0536781
4.62233
0.111224
4.65254
0.154272
4.73377
0.117649
4.99028
-0.157722
5.73905
-0.802713
7.30132
-1.00783
8.54755
-0.683716
9.06495
-0.444674
9.62494
-0.318392
10.2876
-0.25947
10.9774
-0.0794669
10.8294
8.4276
0.0407663
8.35685
0.242861
10.6535
0.352978
10.9678
0.427585
10.3481
0.614256
9.59086
0.869879
8.95706
0.948735
8.48724
0.590811
7.68001
0.0546715
6.15883
-0.10224
5.16137
-0.0789218
4.71651
-0.0430309
4.63346
-0.0129136
4.59295
0.0241814
4.61614
0.0258337
4.73203
-0.144855
5.16088
-0.788258
6.38044
-1.14718
7.66135
-0.967336
8.36631
-0.732752
8.83237
-0.579931
9.47259
-0.529519
10.2356
-0.414351
10.8594
-0.177964
10.5922
8.24844
0.0810564
8.27809
0.319046
10.4161
0.462059
10.8255
0.555991
10.2556
0.688954
9.45956
0.8522
8.79416
1.18023
8.1591
0.919059
7.94031
0.301004
6.77684
0.0473179
5.41492
0.00637191
4.75638
0.0117221
4.62885
0.0126811
4.59287
0.0197614
4.60973
-0.0497644
4.80154
-0.336596
5.44759
-0.807742
6.84953
-1.11003
7.96297
-0.790595
8.04591
-0.646775
8.68936
-0.53476
9.36
-0.446754
10.1456
-0.302893
10.713
-0.059814
10.3489
8.18769
0.111534
8.16997
0.442828
10.0858
0.632937
10.6365
0.6438
10.2466
0.714027
9.39044
0.886692
8.62163
1.06708
7.97941
1.16315
7.84329
0.853707
7.08577
0.205276
6.06324
0.0610411
4.90009
0.0278192
4.66258
0.00893976
4.61269
-0.0211481
4.64069
-0.19491
4.9752
-0.857941
6.10976
-1.12954
7.11842
-0.966347
7.79805
-0.807647
7.88613
-0.651678
8.5339
-0.599577
9.30748
-0.57186
10.1164
-0.378934
10.5176
-0.0625353
10.0311
8.12321
0.00456969
-0.136353
0.00102569
-0.129515
-0.00377693
-0.136237
-0.00294268
-0.133877
-0.00147407
-0.144611
-0.00317139
-0.150234
-0.00521194
-0.157943
-0.00837556
-0.166407
-0.0110774
-0.17678
-0.0123614
-0.189971
-0.0116729
-0.205318
-0.00941436
-0.224777
-0.00731644
-0.24605
-0.00384962
-0.262702
0.00532474
-0.2882
0.0221674
-0.327093
0.046202
-0.387218
0.0747424
-0.450122
0.10661
-0.51581
0.141941
-0.583649
0.181233
-0.649768
0.22696
-0.72122
0.274649
-0.793079
0.321655
-0.873513
0.36542
-0.933991
0.412914
-0.97629
0.340555
-0.874091
0.0880862
-0.596449
0.0225676
-0.123308
-0.0167662
0.0107661
-0.136794
0.00528701
-0.129309
0.0010701
-0.135329
0.00239181
-0.134215
0.00318138
-0.147448
0.000752018
-0.152558
-0.00189081
-0.161715
-0.00581487
-0.169799
-0.00900779
-0.179703
-0.0106027
-0.192299
-0.0101794
-0.208403
-0.00951209
-0.22731
-0.00873344
-0.244485
-0.0076076
-0.266385
-0.00270173
-0.292576
0.0100929
-0.327636
0.0326783
-0.381919
0.0602989
-0.443837
0.0915731
-0.507365
0.127015
-0.569421
0.167712
-0.631789
0.213053
-0.688425
0.264072
-0.770595
0.31844
-0.844628
0.374002
-0.909572
0.427691
-0.948839
0.461539
-0.924383
0.374484
-0.76572
0.0826124
-0.397324
-0.312952
0.00297479
-0.139432
-0.00266487
-0.132959
-0.00814339
-0.1368
-0.00678283
-0.136027
-0.00646775
-0.153889
-0.00863324
-0.167825
-0.0115892
-0.179519
-0.0158273
-0.182826
-0.0193557
-0.189027
-0.0210876
-0.200592
-0.0212269
-0.216135
-0.0207918
-0.233791
-0.0202354
-0.251962
-0.0197916
-0.273292
-0.0175286
-0.297249
-0.0078929
-0.32891
0.011935
-0.365043
0.0391144
-0.435934
0.0711733
-0.495021
0.108167
-0.552645
0.150065
-0.610898
0.196547
-0.669494
0.249465
-0.742817
0.307904
-0.812692
0.370555
-0.877113
0.431115
-0.907345
0.488361
-0.933461
0.518481
-0.955247
0.191273
-0.904201
-2.535
-0.00486273
-0.136232
-0.00970988
-0.139506
-0.0144219
-0.142986
-0.0146585
-0.141989
-0.0147889
-0.163917
-0.0168058
-0.173
-0.0192516
-0.188127
-0.023284
-0.20104
-0.0276423
-0.212957
-0.0313283
-0.214733
-0.0327164
-0.227363
-0.0330452
-0.242894
-0.0332038
-0.260551
-0.0339296
-0.28015
-0.0335371
-0.301387
-0.0270012
-0.327877
-0.01014
-0.359805
0.0169147
-0.422544
0.0498846
-0.478914
0.0882244
-0.534541
0.131664
-0.591022
0.180523
-0.64873
0.236434
-0.710272
0.299072
-0.782968
0.366639
-0.844327
0.427546
-0.877636
0.489675
-0.961846
0.493245
-1.14037
0.194245
-1.70724
-3.91226
-0.00527266
-0.1451
-0.0108426
-0.147019
-0.0163478
-0.15144
-0.0181528
-0.149011
-0.0188752
-0.166431
-0.0211485
-0.174353
-0.0240407
-0.190535
-0.0270295
-0.207406
-0.0307695
-0.219487
-0.0346595
-0.230033
-0.0375395
-0.240547
-0.0404244
-0.252789
-0.0419596
-0.268484
-0.0435222
-0.286308
-0.0442001
-0.305237
-0.039039
-0.326701
-0.0251893
-0.355028
0.00256857
-0.398363
0.0353752
-0.460079
0.0739842
-0.515011
0.117586
-0.570223
0.166838
-0.626445
0.222616
-0.684807
0.288956
-0.747784
0.35972
-0.757516
0.417007
-0.873697
0.412908
-1.02542
0.284152
-1.45161
0.108837
-3.41447
-3.91509
-0.0053376
-0.156497
-0.011366
-0.153597
-0.0185253
-0.158643
-0.0208781
-0.152473
-0.0231342
-0.165309
-0.0260105
-0.172099
-0.0292526
-0.189084
-0.0323728
-0.208189
-0.0349343
-0.224099
-0.0376417
-0.237618
-0.0413489
-0.250187
-0.0450156
-0.261626
-0.0483886
-0.275891
-0.0514054
-0.291869
-0.0541099
-0.309416
-0.0504458
-0.324688
-0.0377598
-0.349781
-0.0123121
-0.378526
0.0221605
-0.439068
0.0613191
-0.493256
0.105424
-0.548376
0.154483
-0.604564
0.210501
-0.661922
0.276211
-0.717986
0.339019
-0.750029
0.397837
-0.886868
0.297531
-1.15194
0.14339
-2.81626
-0.0636005
-3.55097
-3.75129
-0.00652745
-0.167024
-0.0127673
-0.157972
-0.0209682
-0.162357
-0.0248247
-0.152125
-0.0286212
-0.162917
-0.0324539
-0.17129
-0.0358238
-0.188883
-0.0388488
-0.207546
-0.0409698
-0.226757
-0.0423641
-0.24263
-0.0458651
-0.258157
-0.0498387
-0.270237
-0.0537909
-0.284751
-0.0591271
-0.299171
-0.0604095
-0.312853
-0.0606235
-0.324843
-0.0501032
-0.343336
-0.0269187
-0.370678
0.00868643
-0.419277
0.0478831
-0.47368
0.0923345
-0.52795
0.141925
-0.584826
0.198382
-0.642756
0.259179
-0.654271
0.31262
-0.760941
0.27919
-0.940957
0.134665
-1.45917
-0.142055
-3.47911
-0.16385
-3.3469
-3.62052
-0.00809127
-0.174831
-0.0152097
-0.157937
-0.0243467
-0.160586
-0.030244
-0.149661
-0.0360425
-0.159584
-0.0405363
-0.169623
-0.0441861
-0.18829
-0.0468634
-0.207544
-0.0482407
-0.229888
-0.0500263
-0.249019
-0.051612
-0.265389
-0.0562042
-0.278514
-0.061547
-0.291818
-0.0648853
-0.302065
-0.0671292
-0.315351
-0.0680113
-0.328961
-0.0607806
-0.340975
-0.04045
-0.364878
-0.00543113
-0.404895
0.0339214
-0.45886
0.0782711
-0.513591
0.128335
-0.57106
0.185078
-0.625598
0.235683
-0.659624
0.27288
-0.784894
0.153001
-1.06993
-0.183712
-2.88907
-0.380373
-3.36558
-0.20076
-3.27005
-3.37548
-0.00946695
-0.175088
-0.017711
-0.152305
-0.0279357
-0.153652
-0.0360488
-0.145297
-0.0437557
-0.155692
-0.0496546
-0.167367
-0.0538882
-0.187592
-0.0562676
-0.208871
-0.0563953
-0.232189
-0.0565928
-0.253252
-0.0600449
-0.272148
-0.0628518
-0.285305
-0.0663872
-0.296592
-0.0704236
-0.306151
-0.0744443
-0.317242
-0.0733704
-0.332759
-0.0686661
-0.343465
-0.0522289
-0.367304
-0.0210315
-0.398965
0.0197637
-0.45134
0.0638698
-0.507367
0.114143
-0.564047
0.166049
-0.576407
0.20768
-0.678936
0.162616
-0.843076
-0.0910744
-1.44386
-0.506087
-3.20102
-0.455639
-3.22779
-0.197751
-3.1538
-3.09933
-0.010221
-0.166041
-0.0203284
-0.140997
-0.0318671
-0.142944
-0.0422576
-0.138359
-0.0516276
-0.150763
-0.0586814
-0.164586
-0.0634622
-0.187311
-0.0655649
-0.210373
-0.0649248
-0.234558
-0.0647287
-0.258032
-0.0670274
-0.277217
-0.0681182
-0.291873
-0.0718395
-0.30265
-0.0762828
-0.312535
-0.0780853
-0.323376
-0.0787307
-0.338217
-0.0758536
-0.352975
-0.0624608
-0.36765
-0.0349212
-0.401117
0.00616974
-0.449959
0.0500951
-0.505845
0.0999107
-0.560092
0.143669
-0.592047
0.159633
-0.704972
-0.0145919
-0.98449
-0.548202
-2.81796
-0.66617
-3.0871
-0.445365
-3.14935
-0.180516
-2.99594
-2.92366
-0.0115967
-0.148808
-0.0237894
-0.125681
-0.0370236
-0.129143
-0.0492696
-0.129581
-0.0597926
-0.144697
-0.0681191
-0.161899
-0.073206
-0.186092
-0.0746943
-0.209783
-0.0738616
-0.235534
-0.0725806
-0.257684
-0.0732864
-0.278757
-0.0724307
-0.296708
-0.075647
-0.308226
-0.0803381
-0.320156
-0.0821811
-0.330115
-0.0834591
-0.343725
-0.0820013
-0.359496
-0.0713739
-0.37499
-0.0473194
-0.406275
-0.00770036
-0.450587
0.0369181
-0.5049
0.083786
-0.543827
0.11609
-0.612816
0.04441
-0.764452
-0.359002
-1.38727
-0.761238
-2.98871
-0.704773
-2.96253
-0.420997
-3.03527
-0.162798
-2.82872
-2.82177
-0.0135644
-0.127272
-0.0282499
-0.108265
-0.0434973
-0.113733
-0.0570321
-0.119444
-0.068808
-0.138176
-0.0780845
-0.157164
-0.08281
-0.180619
-0.0840794
-0.20502
-0.0817094
-0.232841
-0.0790017
-0.257376
-0.078439
-0.280451
-0.0763432
-0.300278
-0.0797277
-0.313909
-0.0847077
-0.32688
-0.0865211
-0.337205
-0.0880317
-0.34921
-0.087199
-0.364951
-0.0791487
-0.382156
-0.0580089
-0.410846
-0.0210002
-0.450977
0.0246245
-0.503233
0.0638836
-0.523826
0.0633934
-0.638718
-0.124983
-0.911627
-0.799684
-2.5896
-0.907878
-2.86811
-0.680306
-2.87942
-0.394432
-2.90542
-0.151609
-2.69174
-2.75184
-0.0169216
-0.104725
-0.0340885
-0.0902362
-0.0511628
-0.0976513
-0.0659254
-0.108565
-0.0789155
-0.129146
-0.0868252
-0.148894
-0.09192
-0.176694
-0.0923877
-0.20176
-0.0891176
-0.231114
-0.085403
-0.25708
-0.0837777
-0.281811
-0.0806547
-0.303173
-0.0841597
-0.319135
-0.0889837
-0.333142
-0.092125
-0.342793
-0.0934112
-0.354566
-0.0901956
-0.369805
-0.0857206
-0.386108
-0.0670637
-0.411817
-0.0323775
-0.44869
0.0115541
-0.499727
0.0352716
-0.547497
-0.0508706
-0.691411
-0.644114
-1.29944
-0.980077
-2.75093
-0.919099
-2.75833
-0.656455
-2.77755
-0.362606
-2.77259
-0.147895
-2.60834
-2.69734
-0.0208616
-0.0832638
-0.0407764
-0.0714003
-0.0597113
-0.0815993
-0.0749752
-0.0969355
-0.0869314
-0.118702
-0.0954116
-0.142038
-0.0995555
-0.173551
-0.100071
-0.198674
-0.0963338
-0.229338
-0.0916459
-0.256275
-0.0887966
-0.282679
-0.0852322
-0.305424
-0.0886409
-0.323591
-0.0935107
-0.338599
-0.0960542
-0.347266
-0.0963251