/*--------------------------------*- C++ -*----------------------------------*\
| =========                 |                                                 |
| \\      /  F ield         | OpenFOAM: The Open Source CFD Toolbox           |
|  \\    /   O peration     | Version:  2112                                  |
|   \\  /    A nd           | Website:  www.openfoam.com                      |
|    \\/     M anipulation  |                                                 |
\*---------------------------------------------------------------------------*/
FoamFile
{
    version     2.0;
    format      ascii;
    arch        "LSB;label=32;scalar=64";
    class       volScalarField;
    location    "0.00995";
    object      epsilon;
}
// * * * * * * * * * * * * * * * * * * * * * * * * * * * * * * * * * * * * * //

dimensions      [0 2 -3 0 0 0 0];

internalField   nonuniform List<scalar> 
13875
(
1.16003e+06
2.94633e+07
3.28262e+07
3.28408e+07
3.2905e+07
3.28499e+07
3.28976e+07
3.29128e+07
3.29062e+07
3.29197e+07
3.29128e+07
3.2903e+07
3.287e+07
3.28442e+07
3.28611e+07
3.29107e+07
3.29485e+07
3.29128e+07
3.28932e+07
3.28609e+07
3.28993e+07
3.28307e+07
3.28025e+07
2.94923e+07
1.17813e+06
1.31389e+06
2.27478e+07
2.5357e+07
2.52394e+07
2.52771e+07
2.52253e+07
2.52321e+07
2.52428e+07
2.5221e+07
2.52218e+07
2.52269e+07
2.52442e+07
2.521e+07
2.51942e+07
2.52008e+07
2.52503e+07
2.52462e+07
2.52363e+07
2.5225e+07
2.52291e+07
2.52696e+07
2.52198e+07
2.53275e+07
2.27647e+07
1.34222e+06
1.57303e+06
1.97066e+07
2.18307e+07
2.16269e+07
2.16942e+07
2.16457e+07
2.15683e+07
2.15538e+07
2.15193e+07
2.15067e+07
2.15033e+07
2.154e+07
2.16081e+07
2.16032e+07
2.15974e+07
2.15474e+07
2.1532e+07
2.15303e+07
2.15484e+07
2.16409e+07
2.16834e+07
2.16018e+07
2.17899e+07
1.96957e+07
1.58439e+06
1.81372e+06
1.73849e+07
1.90383e+07
1.88793e+07
1.89627e+07
1.89171e+07
1.88295e+07
1.88122e+07
1.87869e+07
1.87691e+07
1.87608e+07
1.8781e+07
1.88853e+07
1.88811e+07
1.88767e+07
1.87877e+07
1.87943e+07
1.87801e+07
1.88064e+07
1.89151e+07
1.89521e+07
1.88578e+07
1.90147e+07
1.73669e+07
1.82027e+06
2.0228e+06
1.5452e+07
1.67719e+07
1.66201e+07
1.66997e+07
1.66596e+07
1.65692e+07
1.65634e+07
1.65421e+07
1.65223e+07
1.65189e+07
1.65283e+07
1.66275e+07
1.66277e+07
1.66198e+07
1.65337e+07
1.65476e+07
1.65307e+07
1.65525e+07
1.66547e+07
1.66902e+07
1.6605e+07
1.67447e+07
1.5429e+07
2.03597e+06
2.2065e+06
1.37119e+07
1.49276e+07
1.47375e+07
1.48286e+07
1.47771e+07
1.46792e+07
1.46808e+07
1.46624e+07
1.46413e+07
1.46426e+07
1.46422e+07
1.47384e+07
1.47426e+07
1.4732e+07
1.46467e+07
1.46678e+07
1.46475e+07
1.46668e+07
1.47749e+07
1.48194e+07
1.47292e+07
1.49043e+07
1.38461e+07
2.22288e+06
2.42262e+06
1.2251e+07
1.34773e+07
1.32064e+07
1.32683e+07
1.32035e+07
1.30913e+07
1.30945e+07
1.30777e+07
1.30539e+07
1.30599e+07
1.30512e+07
1.31455e+07
1.31518e+07
1.3138e+07
1.30551e+07
1.30837e+07
1.30613e+07
1.30854e+07
1.32005e+07
1.3257e+07
1.32014e+07
1.34223e+07
1.195e+07
2.42981e+06
2.66607e+06
1.06157e+07
1.23125e+07
1.19742e+07
1.19981e+07
1.18891e+07
1.17578e+07
1.17534e+07
1.17343e+07
1.17082e+07
1.17192e+07
1.17017e+07
1.1795e+07
1.18044e+07
1.17881e+07
1.1705e+07
1.1743e+07
1.17204e+07
1.17514e+07
1.18844e+07
1.19812e+07
1.19656e+07
1.22649e+07
1.05435e+07
2.69555e+06
3.49657e+06
1.0213e+07
1.14821e+07
1.10285e+07
1.09381e+07
1.07881e+07
1.06297e+07
1.06202e+07
1.05986e+07
1.05695e+07
1.05851e+07
1.05605e+07
1.06523e+07
1.06648e+07
1.06473e+07
1.05659e+07
1.06087e+07
1.05862e+07
1.06249e+07
1.07803e+07
1.09225e+07
1.10215e+07
1.14749e+07
1.03386e+07
3.57525e+06
6.83617e+06
1.22209e+07
1.11969e+07
1.04275e+07
1.01652e+07
9.92806e+06
9.75679e+06
9.73456e+06
9.70886e+06
9.68013e+06
9.69625e+06
9.6694e+06
9.75502e+06
9.77012e+06
9.75318e+06
9.6831e+06
9.71954e+06
9.70799e+06
9.74519e+06
9.91522e+06
1.01432e+07
1.036e+07
1.11614e+07
1.2131e+07
6.89439e+06
1.49154e+07
1.86802e+07
1.20467e+07
1.0322e+07
9.61658e+06
9.31826e+06
9.13202e+06
9.07549e+06
9.03827e+06
9.00925e+06
9.02208e+06
8.99615e+06
9.07173e+06
9.08977e+06
9.0785e+06
9.02841e+06
9.05593e+06
9.06143e+06
9.12383e+06
9.285e+06
9.6086e+06
1.02674e+07
1.18773e+07
1.79407e+07
1.49999e+07
2.54652e+07
6.8709e+07
1.81645e+07
1.07065e+07
9.70637e+06
9.01058e+06
8.71363e+06
8.61391e+06
8.5544e+06
8.5233e+06
8.52881e+06
8.50631e+06
8.56574e+06
8.58705e+06
8.58486e+06
8.55631e+06
8.58046e+06
8.61035e+06
8.70265e+06
9.01742e+06
9.65463e+06
1.05525e+07
1.75769e+07
6.72547e+07
2.50323e+07
2.65803e+07
7.57379e+07
8.68985e+07
2.41459e+07
1.09499e+07
9.12135e+06
8.73726e+06
8.46028e+06
8.34043e+06
8.28476e+06
8.27254e+06
8.24891e+06
8.28874e+06
8.31241e+06
8.32425e+06
8.32637e+06
8.38029e+06
8.49157e+06
8.76195e+06
9.1521e+06
1.12974e+07
2.26231e+07
8.08269e+07
7.64594e+07
2.60804e+07
2.63477e+07
5.50166e+07
7.97367e+07
1.04907e+08
5.80828e+07
1.31206e+07
9.65161e+06
8.83075e+06
8.58141e+06
8.55295e+06
8.54255e+06
8.52216e+06
8.55233e+06
8.57477e+06
8.59582e+06
8.61628e+06
8.65441e+06
8.88648e+06
9.95078e+06
1.45116e+07
6.57602e+07
9.10722e+07
7.52786e+07
5.44598e+07
2.57541e+07
2.53291e+07
4.24732e+07
5.80557e+07
7.26483e+07
7.54394e+07
7.52344e+07
2.36174e+07
1.31205e+07
1.11016e+07
1.0387e+07
1.00997e+07
9.99248e+06
9.99069e+06
1.0022e+07
1.01082e+07
1.03452e+07
1.10344e+07
1.31862e+07
2.62842e+07
7.75777e+07
7.50234e+07
6.60574e+07
5.65664e+07
4.22059e+07
2.64141e+07
2.47044e+07
3.34853e+07
4.33442e+07
5.43751e+07
5.93796e+07
6.79985e+07
5.12139e+07
4.55173e+07
4.15077e+07
3.25473e+07
3.45081e+07
3.55943e+07
3.63766e+07
3.60866e+07
3.49557e+07
3.30051e+07
4.03263e+07
4.9044e+07
5.20362e+07
6.86386e+07
5.81898e+07
5.05181e+07
4.26002e+07
3.33959e+07
2.57951e+07
2.00418e+07
2.52224e+07
3.22591e+07
4.20033e+07
4.95549e+07
6.19659e+07
7.07174e+07
7.04374e+07
5.73842e+07
4.95786e+07
5.21921e+07
5.49064e+07
5.64995e+07
5.58668e+07
5.29946e+07
5.31605e+07
5.79185e+07
7.05806e+07
7.07162e+07
6.13199e+07
4.71503e+07
3.90597e+07
3.08951e+07
2.45043e+07
1.99386e+07
1.48186e+07
1.91005e+07
2.64533e+07
3.74011e+07
4.54248e+07
5.30065e+07
6.38145e+07
6.86153e+07
5.13183e+07
3.83301e+07
3.5289e+07
3.55895e+07
3.62474e+07
3.59191e+07
3.58399e+07
4.14676e+07
5.17447e+07
6.47072e+07
6.2693e+07
5.40844e+07
4.52643e+07
3.60366e+07
2.5366e+07
1.85551e+07
1.4518e+07
1.22163e+07
1.66944e+07
2.3971e+07
3.72707e+07
4.77643e+07
4.62267e+07
4.93466e+07
5.47903e+07
4.54069e+07
3.41815e+07
2.87973e+07
2.72247e+07
2.70673e+07
2.75256e+07
2.95212e+07
3.55125e+07
4.39381e+07
5.12183e+07
4.87821e+07
4.79642e+07
5.05442e+07
3.69616e+07
2.35762e+07
1.64399e+07
1.20589e+07
1.16227e+07
1.82216e+07
2.49225e+07
3.69165e+07
4.34674e+07
3.92318e+07
3.87681e+07
4.23367e+07
3.88044e+07
3.13323e+07
2.55785e+07
2.24086e+07
2.14194e+07
2.29229e+07
2.66496e+07
3.21257e+07
3.70029e+07
3.96886e+07
3.85737e+07
4.07776e+07
4.51594e+07
3.62488e+07
2.47636e+07
1.83237e+07
1.17109e+07
2.99117e+07
5.97593e+07
4.50679e+07
3.22216e+07
3.45914e+07
3.1619e+07
3.1006e+07
3.38828e+07
3.28834e+07
2.77275e+07
2.22181e+07
1.84601e+07
1.72459e+07
1.92434e+07
2.35467e+07
2.835e+07
3.122e+07
3.19426e+07
3.10085e+07
3.28371e+07
3.5752e+07
3.30617e+07
4.9989e+07
6.53307e+07
3.86071e+07
9.29036e+07
2.99896e+08
6.14353e+07
2.61262e+07
2.7384e+07
2.57054e+07
2.538e+07
2.77872e+07
2.77306e+07
2.39563e+07
1.90245e+07
1.52636e+07
1.40187e+07
1.60557e+07
2.02431e+07
2.43489e+07
2.62149e+07
2.63534e+07
2.5372e+07
2.65677e+07
2.812e+07
2.7015e+07
6.76926e+07
2.95194e+08
1.08024e+08
1.10544e+08
2.32778e+08
5.09239e+07
2.17645e+07
2.21957e+07
2.12472e+07
2.10301e+07
2.30798e+07
2.33116e+07
2.03791e+07
1.6077e+07
1.2667e+07
1.14854e+07
1.32836e+07
1.7038e+07
2.05988e+07
2.19388e+07
2.19472e+07
2.09859e+07
2.17475e+07
2.26203e+07
2.24301e+07
5.16951e+07
2.24258e+08
1.07651e+08
9.45212e+07
2.35483e+08
3.99458e+07
1.8642e+07
1.8272e+07
1.76556e+07
1.75441e+07
1.92185e+07
1.95583e+07
1.71639e+07
1.34364e+07
1.04933e+07
9.51188e+06
1.1073e+07
1.43405e+07
1.74072e+07
1.84092e+07
1.83039e+07
1.75574e+07
1.80488e+07
1.8653e+07
1.92787e+07
4.1291e+07
2.42029e+08
9.39698e+07
8.65626e+07
2.25461e+08
3.33803e+07
1.62784e+07
1.54257e+07
1.48667e+07
1.4843e+07
1.61462e+07
1.64736e+07
1.44833e+07
1.13083e+07
8.79737e+06
7.97108e+06
9.29603e+06
1.21152e+07
1.47346e+07
1.55269e+07
1.53798e+07
1.48315e+07
1.51782e+07
1.5804e+07
1.68685e+07
3.51023e+07
2.39694e+08
8.72508e+07
8.01703e+07
2.17687e+08
2.87266e+07
1.42408e+07
1.32514e+07
1.26527e+07
1.27102e+07
1.36838e+07
1.39336e+07
1.22771e+07
9.60012e+06
7.45405e+06
6.75179e+06
7.86316e+06
1.02581e+07
1.2474e+07
1.31379e+07
1.30023e+07
1.26087e+07
1.28338e+07
1.35698e+07
1.4682e+07
3.01301e+07
2.30503e+08
8.16569e+07
7.63406e+07
1.92286e+08
2.42767e+07
1.2491e+07
1.15536e+07
1.08938e+07
1.09727e+07
1.16688e+07
1.1793e+07
1.03741e+07
8.15334e+06
6.36734e+06
5.78097e+06
6.73631e+06
8.77493e+06
1.06362e+07
1.12266e+07
1.11238e+07
1.08484e+07
1.10322e+07
1.18762e+07
1.29353e+07
2.59961e+07
2.0621e+08
7.84179e+07
7.20911e+07
1.74641e+08
2.13295e+07
1.11042e+07
1.02111e+07
9.51713e+06
9.57447e+06
1.00586e+07
1.00816e+07
8.86762e+06
7.01028e+06
5.49924e+06
4.99777e+06
5.80741e+06
7.52791e+06
9.09743e+06
9.63874e+06
9.58837e+06
9.41805e+06
9.60728e+06
1.04614e+07
1.14598e+07
2.29406e+07
1.90062e+08
7.35262e+07
6.65725e+07
1.64069e+08
1.92494e+07
9.95047e+06
9.10411e+06
8.44834e+06
8.42867e+06
8.73688e+06
8.67617e+06
7.6222e+06
6.07615e+06
4.7963e+06
4.35807e+06
5.04366e+06
6.48203e+06
7.79275e+06
8.31469e+06
8.3242e+06
8.24286e+06
8.45769e+06
9.26665e+06
1.02261e+07
2.02009e+07
1.66085e+08
6.95857e+07
6.17214e+07
1.45842e+08
1.74981e+07
8.99995e+06
8.12608e+06
7.55078e+06
7.48695e+06
7.6271e+06
7.47555e+06
6.55545e+06
5.26959e+06
4.20094e+06
3.83244e+06
4.43186e+06
5.66532e+06
6.77191e+06
7.24969e+06
7.30356e+06
7.30546e+06
7.53907e+06
8.25631e+06
9.24041e+06
1.84647e+07
1.51476e+08
6.51088e+07
5.73398e+07
1.26026e+08
1.60781e+07
8.25185e+06
7.30069e+06
6.79296e+06
6.70584e+06
6.7245e+06
6.51467e+06
5.70257e+06
4.628e+06
3.71871e+06
3.39542e+06
3.91189e+06
4.95402e+06
5.88308e+06
6.34476e+06
6.45111e+06
6.52722e+06
6.75454e+06
7.3691e+06
8.42753e+06
1.67922e+07
1.31789e+08
6.02151e+07
5.3478e+07
1.13116e+08
1.49888e+07
7.68352e+06
6.59872e+06
6.13436e+06
6.0411e+06
5.98024e+06
5.72993e+06
5.01282e+06
4.09907e+06
3.31426e+06
3.03172e+06
3.47475e+06
4.36966e+06
5.16574e+06
5.59834e+06
5.74396e+06
5.86565e+06
6.07638e+06
6.62405e+06
7.8011e+06
1.54062e+07
1.14139e+08
5.62723e+07
4.98312e+07
9.69271e+07
1.38782e+07
7.23023e+06
6.01137e+06
5.57337e+06
5.44828e+06
5.33752e+06
5.0476e+06
4.40818e+06
3.63775e+06
2.9699e+06
2.72473e+06
3.11777e+06
3.89234e+06
4.57243e+06
4.98e+06
5.15665e+06
5.29247e+06
5.50548e+06
6.01943e+06
7.30638e+06
1.44064e+07
1.01285e+08
5.2471e+07
4.68283e+07
8.43641e+07
1.28831e+07
6.88473e+06
5.54269e+06
5.093e+06
4.92758e+06
4.79894e+06
4.49312e+06
3.92421e+06
3.26285e+06
2.67982e+06
2.46455e+06
2.8043e+06
3.47903e+06
4.06856e+06
4.44811e+06
4.64919e+06
4.7867e+06
5.01188e+06
5.52573e+06
6.91261e+06
1.35146e+07
8.84448e+07
4.88824e+07
4.41102e+07
7.50979e+07
1.18845e+07
6.58447e+06
5.21166e+06
4.67645e+06
4.48214e+06
4.33069e+06
4.02494e+06
3.51179e+06
2.94341e+06
2.43435e+06
2.24209e+06
2.54026e+06
3.12621e+06
3.63958e+06
3.99828e+06
4.20627e+06
4.35497e+06
4.60566e+06
5.16561e+06
6.62205e+06
1.24941e+07
7.84356e+07
4.587e+07
4.13342e+07
6.64068e+07
1.09434e+07
6.31791e+06
4.96353e+06
4.32268e+06
4.08985e+06
3.91499e+06
3.61705e+06
3.15811e+06
2.66311e+06
2.21718e+06
2.0504e+06
2.31516e+06
2.83836e+06
3.28928e+06
3.61755e+06
3.82002e+06
3.98512e+06
4.25266e+06
4.91591e+06
6.38953e+06
1.15967e+07
7.12115e+07
4.3242e+07
3.91836e+07
5.99671e+07
1.01569e+07
6.18085e+06
4.78439e+06
4.03343e+06
3.75955e+06
3.55899e+06
3.26991e+06
2.8596e+06
2.42772e+06
2.03405e+06
1.88399e+06
2.11811e+06
2.57761e+06
2.97522e+06
3.27882e+06
3.4812e+06
3.65908e+06
3.95837e+06
4.72801e+06
6.2572e+06
1.06676e+07
6.32999e+07
4.06293e+07
3.70556e+07
5.58225e+07
9.44485e+06
6.03682e+06
4.66009e+06
3.82109e+06
3.46866e+06
3.24988e+06
2.97203e+06
2.60677e+06
2.22636e+06
1.87234e+06
1.73886e+06
1.94554e+06
2.35766e+06
2.70954e+06
2.9841e+06
3.18893e+06
3.37542e+06
3.74387e+06
4.61819e+06
6.11656e+06
9.79108e+06
5.75149e+07
3.84954e+07
3.47169e+07
5.10225e+07
8.67022e+06
5.75265e+06
4.5994e+06
3.66388e+06
3.22483e+06
2.98151e+06
2.70798e+06
2.37818e+06
2.04309e+06
1.73019e+06
1.61195e+06
1.7986e+06
2.16781e+06
2.4803e+06
2.73338e+06
2.93807e+06
3.13889e+06
3.58272e+06
4.57497e+06
5.86946e+06
8.99406e+06
5.35358e+07
3.64553e+07
3.2805e+07
4.76079e+07
7.9861e+06
5.44532e+06
4.59819e+06
3.55398e+06
3.03387e+06
2.75528e+06
2.48532e+06
2.18684e+06
1.88902e+06
1.60565e+06
1.4993e+06
1.66448e+06
1.9989e+06
2.27727e+06
2.51007e+06
2.72275e+06
2.95543e+06
3.47563e+06
4.55665e+06
5.52089e+06
8.26389e+06
4.96897e+07
3.42519e+07
3.12649e+07
4.47096e+07
7.60461e+06
5.14977e+06
4.67665e+06
3.49218e+06
2.89044e+06
2.5714e+06
2.29568e+06
2.01895e+06
1.75145e+06
1.49567e+06
1.39956e+06
1.54688e+06
1.8472e+06
2.09971e+06
2.32096e+06
2.54484e+06
2.82239e+06
3.41255e+06
4.68901e+06
5.20949e+06
7.66523e+06
4.66534e+07
3.23565e+07
2.98139e+07
4.19504e+07
7.06802e+06
4.79726e+06
4.58277e+06
3.47623e+06
2.77579e+06
2.43069e+06
2.13415e+06
1.87083e+06
1.62818e+06
1.39555e+06
1.30998e+06
1.44352e+06
1.72004e+06
1.94931e+06
2.16356e+06
2.4081e+06
2.71507e+06
3.41943e+06
4.68148e+06
4.9284e+06
7.77123e+06
4.37175e+07
3.08217e+07
2.86226e+07
3.95448e+07
6.71301e+06
4.45695e+06
4.35411e+06
3.55537e+06
2.70236e+06
2.32249e+06
2.0058e+06
1.74489e+06
1.52058e+06
1.30761e+06
1.22979e+06
1.34972e+06
1.60133e+06
1.81448e+06
2.03015e+06
2.3028e+06
2.64141e+06
3.47891e+06
4.45387e+06
4.57048e+06
7.25679e+06
4.10565e+07
2.94877e+07
2.76457e+07
3.71904e+07
6.88365e+06
4.16558e+06
4.07595e+06
3.71246e+06
2.68659e+06
2.23119e+06
1.9084e+06
1.64175e+06
1.42768e+06
1.22845e+06
1.1574e+06
1.26579e+06
1.49789e+06
1.70083e+06
1.92681e+06
2.21944e+06
2.63386e+06
3.685e+06
4.17747e+06
4.24993e+06
7.04433e+06
3.8604e+07
2.84312e+07
2.66807e+07
3.52158e+07
6.47336e+06
3.87503e+06
3.7803e+06
3.70428e+06
2.76371e+06
2.1684e+06
1.82691e+06
1.55812e+06
1.346e+06
1.15826e+06
1.09312e+06
1.19313e+06
1.41277e+06
1.61123e+06
1.84547e+06
2.16279e+06
2.74341e+06
3.72929e+06
3.88145e+06
4.01003e+06
7.12947e+06
3.64383e+07
2.75871e+07
2.58252e+07
3.31925e+07
6.5637e+06
3.66967e+06
3.49816e+06
3.49142e+06
2.99096e+06
2.16418e+06
1.76581e+06
1.49594e+06
1.28292e+06
1.10035e+06
1.03726e+06
1.13089e+06
1.3424e+06
1.54229e+06
1.77905e+06
2.15552e+06
2.96096e+06
3.52709e+06
3.58799e+06
3.75672e+06
6.87707e+06
3.452e+07
2.67684e+07
2.501e+07
3.13554e+07
6.72979e+06
3.53557e+06
3.25441e+06
3.26558e+06
3.05718e+06
2.29709e+06
1.72446e+06
1.44081e+06
1.23438e+06
1.05464e+06
987820
1.08186e+06
1.28789e+06
1.48482e+06
1.7315e+06
2.27691e+06
3.0642e+06
3.29895e+06
3.32795e+06
3.56688e+06
6.74635e+06
3.27254e+07
2.59272e+07
2.38573e+07
2.94865e+07
6.55592e+06
3.38839e+06
3.04482e+06
3.03467e+06
2.89774e+06
2.52009e+06
1.748e+06
1.39534e+06
1.19219e+06
1.01865e+06
950156
1.04422e+06
1.24339e+06
1.43887e+06
1.75462e+06
2.52463e+06
2.92711e+06
3.06164e+06
3.10899e+06
3.46103e+06
6.8515e+06
3.06608e+07
2.47385e+07
2.24505e+07
2.73933e+07
6.44245e+06
3.29104e+06
2.86619e+06
2.81154e+06
2.72821e+06
2.63044e+06
1.8922e+06
1.37429e+06
1.1583e+06
987930
922231
1.01178e+06
1.20523e+06
1.41205e+06
1.88514e+06
2.67072e+06
2.75817e+06
2.83077e+06
2.91757e+06
3.3467e+06
6.62217e+06
2.8481e+07
2.32711e+07
1.94799e+07
2.43377e+07
6.27492e+06
3.209e+06
2.71568e+06
2.62233e+06
2.55589e+06
2.51424e+06
2.14399e+06
1.43602e+06
1.13768e+06
961744
896959
983716
1.17843e+06
1.45736e+06
2.14256e+06
2.5721e+06
2.58515e+06
2.63628e+06
2.75454e+06
3.23802e+06
6.33442e+06
2.53078e+07
2.02049e+07
9.29958e+06
5.27326e+06
3.61108e+06
2.44204e+06
1.67813e+06
1.2627e+06
1.03184e+06
879286
754598
638166
523240
414648
320217
246108
191143
152151
124392
104697
90520.4
80366.5
72577.3
65978
61018.5
56683.6
52384.4
48800.9
46125.2
45498.3
51481
99481.3
1.03735e+07
5.57137e+06
3.77057e+06
2.54084e+06
1.74905e+06
1.32371e+06
1.08686e+06
925300
800374
684522
570213
461013
361131
278983
215637
168874
135105
110855
93837.6
81710.1
72370.7
65806.8
60494.4
55856.3
51843.8
48438.7
45906
45514.9
52120.2
99925.1
1.06333e+07
5.70032e+06
3.91816e+06
2.6471e+06
1.83277e+06
1.39497e+06
1.14963e+06
982726
857159
740417
626223
513677
407353
316198
243003
187388
146938
118231
97780
83092.8
72755.8
65539.8
60039.1
55250.3
51356.4
48028.6
45771.2
45648.5
52955.3
100548
1.11766e+07
6.05837e+06
4.1814e+06
2.82975e+06
1.96596e+06
1.49935e+06
1.23367e+06
1.0596e+06
929582
811127
694533
578560
464957
365210
279794
213648
165060
129251
103965
86186.3
74426.3
66152.5
59962.4
55106.9
51035.5
47828
45768.3
45953.4
53679.5
101383
1.18328e+07
6.4925e+06
4.5127e+06
3.06993e+06
2.13554e+06
1.62823e+06
1.33847e+06
1.1519e+06
1.01613e+06
894071
775459
655935
536406
425444
327893
248607
189044
144962
113301
91773
77140.2
67193.2
60337.6
54994.5
50787
47641.7
45731.1
46213.2
54450.4
102327
1.25331e+07
6.95914e+06
4.8822e+06
3.34986e+06
2.33632e+06
1.7801e+06
1.46067e+06
1.25887e+06
1.1154e+06
989575
868725
745062
619277
496869
386030
292664
220486
165847
126844
99707.3
81561.6
69389.8
61162.1
55168.2
50654.2
47488
45727
46495.3
55283.9
103448
1.32813e+07
7.44545e+06
5.29376e+06
3.66649e+06
2.57444e+06
1.95725e+06
1.60429e+06
1.38348e+06
1.23034e+06
1.09932e+06
973669
845238
713070
580814
457054
348677
261037
193764
144912
110879
87978
72658.2
62474.6
55570.3
50607.7
47344.6
45743.4
46819.7
56089.8
104805
1.40045e+07
7.96181e+06
5.74528e+06
4.02515e+06
2.85677e+06
2.16765e+06
1.77328e+06
1.52787e+06
1.36259e+06
1.22472e+06
1.09303e+06
959321
820240
677741
541584
417073
312291
230180
169363
126464
97043.1
77401.3
64663.4
56350.1
50754.5
47324.1
45829.8
47214.8
56977
106736
1.46967e+07
8.48949e+06
6.23834e+06
4.44219e+06
3.18923e+06
2.41962e+06
1.97365e+06
1.69828e+06
1.51563e+06
1.36773e+06
1.22899e+06
1.08846e+06
941361
788918
640481
500037
377039
277871
202437
147932
109675
84215.5
67971.5
57722.6
51215.2
47497.9
46037
47703.8
57960.3
108683
1.53024e+07
9.02036e+06
6.77719e+06
4.91993e+06
3.57647e+06
2.72028e+06
2.21193e+06
1.89924e+06
1.69264e+06
1.53008e+06
1.38126e+06
1.23102e+06
1.07548e+06
914515
754087
598407
457634
339448
246157
176697
127093
93920
72932.8
59965.3
52217.4
47990.9
46448.5
48349.3
59082.5
110537
1.59607e+07
9.58054e+06
7.37271e+06
5.45882e+06
4.02217e+06
3.07372e+06
2.49444e+06
2.13444e+06
1.8967e+06
1.71292e+06
1.54945e+06
1.38734e+06
1.2231e+06
1.05398e+06
882243
712989
555146
416616
302330
214079
150418
107453
80120.2
63452.6
53886.3
48825.9
47045.6
49168.4
60360.1
112774
1.67294e+07
1.02035e+07
8.02194e+06
6.05803e+06
4.52865e+06
3.47994e+06
2.82594e+06
2.4098e+06
2.13178e+06
1.91803e+06
1.73423e+06
1.55758e+06
1.38349e+06
1.20626e+06
1.02458e+06
843672
669100
509783
372548
262517
181646
126076
90308.8
68564
56322.2
49970.5
47792.4
50035.9
61657.8
115467
1.75409e+07
1.08404e+07
8.69936e+06
6.71027e+06
5.09428e+06
3.94421e+06
3.21221e+06
2.73312e+06
2.40268e+06
2.14846e+06
1.93823e+06
1.74347e+06
1.55694e+06
1.37062e+06
1.17987e+06
988274
798688
619032
458263
324712
223049
151351
104495
75775.9
59651.5
51471.8
48663.3
50924
62972.9
118531
1.82088e+07
1.14829e+07
9.38997e+06
7.40436e+06
5.71712e+06
4.47364e+06
3.66344e+06
3.11347e+06
2.71459e+06
2.40822e+06
2.16526e+06
1.94852e+06
1.74635e+06
1.54861e+06
1.34822e+06
1.14598e+06
942253
744305
561367
403262
277398
185522
124090
85820.3
64306.2
53517.7
49718.6
51818.3
64319.1
121832
1.8753e+07
1.21055e+07
1.00921e+07
8.13049e+06
6.40068e+06
5.07909e+06
4.1946e+06
3.55612e+06
3.07207e+06
2.704e+06
2.42337e+06
2.17995e+06
1.95707e+06
1.74295e+06
1.52995e+06
1.31635e+06
1.09973e+06
885599
682720
499949
347305
231088
150826
100048
70953.8
56420.6
51033.2
52788.1
65820.6
125549
1.92127e+07
1.27227e+07
1.08158e+07
8.88632e+06
7.14567e+06
5.77392e+06
4.81771e+06
4.06361e+06
3.48234e+06
3.05599e+06
2.72756e+06
2.44699e+06
2.19416e+06
1.95658e+06
1.72712e+06
1.50002e+06
1.27122e+06
1.04217e+06
820878
614668
434489
290645
186708
119744
80421.2
60533.7
52707.5
53838.7
67436.7
130245
1.98971e+07
1.3236e+07
1.15169e+07
9.66421e+06
7.94502e+06
6.56637e+06
5.5385e+06
4.65318e+06
3.96903e+06
3.47861e+06
3.09002e+06
2.75818e+06
2.46473e+06
2.19521e+06
1.94346e+06
1.69874e+06
1.45568e+06
1.21263e+06
973714
745485
538781
365173
233851
146256
93498.9
66054
54943.8
54973.2
68314.7
133623
2.02301e+07
1.37182e+07
1.21703e+07
1.0451e+07
8.7978e+06
7.46026e+06
6.36439e+06
5.35058e+06
4.56156e+06
3.98862e+06
3.52435e+06
3.12576e+06
2.77995e+06
2.46776e+06
2.18586e+06
1.91791e+06
1.6563e+06
1.39772e+06
1.14144e+06
892472
659671
455572
293930
181269
111124
73449.4
57809.9
56175.3
69216.6
137204
2.06576e+07
1.40532e+07
1.26933e+07
1.12106e+07
9.70222e+06
8.45354e+06
7.30851e+06
6.17992e+06
5.28145e+06
4.60658e+06
4.0481e+06
3.5657e+06
3.15241e+06
2.78437e+06
2.46263e+06
2.16477e+06
1.87817e+06
1.59902e+06
1.32336e+06
1.05458e+06
796550
562560
368776
226670
134462
83241.9
61409.4
57470.8
69926.7
140766
2.07865e+07
1.4407e+07
1.31287e+07
1.18951e+07
1.06406e+07
9.54839e+06
8.40036e+06
7.17263e+06
6.15256e+06
5.35385e+06
4.68041e+06
4.09646e+06
3.59509e+06
3.15746e+06
2.78364e+06
2.44514e+06
2.12595e+06
1.81922e+06
1.5206e+06
1.23019e+06
948070
685782
459320
284602
165064
96300.7
65908.5
58705.8
70320.2
143964
2.10298e+07
1.45515e+07
1.3359e+07
1.24574e+07
1.16004e+07
1.07577e+07
9.67513e+06
8.35932e+06
7.20606e+06
6.26131e+06
5.44792e+06
4.738e+06
4.12559e+06
3.6005e+06
3.1584e+06
2.76564e+06
2.40359e+06
2.06105e+06
1.73414e+06
1.41833e+06
1.11222e+06
823608
565020
356278
204718
113793
71768.6
60118.5
70541.1
146619
2.10794e+07
1.4739e+07
1.34741e+07
1.2894e+07
1.25651e+07
1.21037e+07
1.11662e+07
9.78915e+06
8.4787e+06
7.35724e+06
6.37869e+06
5.51699e+06
4.76446e+06
4.12986e+06
3.59942e+06
3.13546e+06
2.71713e+06
2.32832e+06
1.96506e+06
1.61904e+06
1.28607e+06
970910
684681
442152
255468
137389
80071.8
62250.4
70986.1
148946
2.1363e+07
1.47685e+07
1.34921e+07
1.32991e+07
1.36042e+07
1.36455e+07
1.29221e+07
1.15049e+07
1.00207e+07
8.68939e+06
7.50731e+06
6.45767e+06
5.53943e+06
4.76647e+06
4.12277e+06
3.56634e+06
3.07385e+06
2.62509e+06
2.21426e+06
1.83036e+06
1.46572e+06
1.12409e+06
813583
539619
317674
168125
91389.2
65267.3
71767.8
151132
2.08921e+07
1.53428e+07
1.39751e+07
1.40735e+07
1.49462e+07
1.54959e+07
1.50166e+07
1.35695e+07
1.18909e+07
1.0311e+07
8.88005e+06
7.5994e+06
6.47702e+06
5.53535e+06
4.74686e+06
4.07226e+06
3.48376e+06
2.95715e+06
2.48517e+06
2.05387e+06
1.65455e+06
1.28689e+06
950671
645848
390208
206608
106099
69212.4
72768.9
153397
1.93111e+07
2.01967e+07
1.72813e+07
1.6284e+07
1.71396e+07
1.78678e+07
1.75645e+07
1.60684e+07
1.41659e+07
1.22888e+07
1.05516e+07
8.98485e+06
7.61415e+06
6.4593e+06
5.49123e+06
4.66638e+06
3.9571e+06
3.33475e+06
2.7893e+06
2.30377e+06
1.86624e+06
1.46817e+06
1.09986e+06
763001
473361
254160
125575
74649.7
73918.6
155892
98461.8
51385.3
45265.8
46116.5
48949.8
52548.7
56894.9
61428.7
66701.7
72852
80150.8
90637.5
105378
125025
151350
188829
241826
314579
408021
512178
624412
739160
864626
1.02261e+06
1.26206e+06
1.69488e+06
2.48355e+06
3.67221e+06
5.33243e+06
9.40708e+06
98905.9
51771.3
45233
45817.1
48532.3
52009.4
56216.7
60860.9
66151.7
73062.5
81704.1
93897.5
111134
135191
167504
212146
273577
353620
450482
555792
667521
783451
909542
1.07306e+06
1.3213e+06
1.76288e+06
2.57733e+06
3.82921e+06
5.62945e+06
1.05045e+07
99562.6
52450.2
45436.8
45649.8
48020.5
51613.3
55478.2
60262
65738.2
73143.6
83084.3
97129.9
117249
145821
185430
238496
308798
397034
500327
608849
722384
838516
965273
1.13326e+06
1.39089e+06
1.84446e+06
2.68052e+06
3.976e+06
5.76691e+06
1.07869e+07
100328
53246.4
45877
45667.9
47863.3
51396
55251.5
60100.7
66215.9
74427.2
86306.2
103185
127330
162125
209950
273361
354855
452907
563370
676748
791942
909849
1.04033e+06
1.21809e+06
1.49288e+06
1.97504e+06
2.86065e+06
4.23924e+06
6.13242e+06
1.13526e+07
101352
54268.4
46259.2
45730.5
47747.1
51076.2
55161.4
60318.3
67280.1
77025.6
91345.6
112246
142123
184826
242594
318508
411801
520961
638104
756804
874738
996273
1.13362e+06
1.32246e+06
1.62208e+06
2.14475e+06
3.09767e+06
4.57108e+06
6.57885e+06
1.20369e+07
102616
55070.9
46530.8
45815
47608.9
50946.8
55289.6
61079.9
69171.9
81006.9
98913.7
125079
162296
214807
284579
374595
481293
600828
725541
849305
969827
1.0947e+06
1.23924e+06
1.44411e+06
1.77234e+06
2.34152e+06
3.37017e+06
4.93783e+06
7.05459e+06
1.27928e+07
103985
55725.8
46875.6
46096.3
47520.8
50863.3
55667.8
62289
72075.8
86865.8
109331
142301
189089
254228
338673
444505
564794
694252
825626
953869
1.07905e+06
1.20903e+06
1.36235e+06
1.58597e+06
1.94711e+06
2.57297e+06
3.68522e+06
5.34295e+06
7.54591e+06
1.35846e+07
105581
56492.9
47270.9
46202.9
47600.7
50958
56363.9
64310
76429.2
95345
123995
165585
224244
304464
406446
528656
663195
802915
940200
1.07327e+06
1.20366e+06
1.34129e+06
1.50632e+06
1.75319e+06
2.15503e+06
2.85012e+06
4.03949e+06
5.7956e+06
8.07061e+06
1.43696e+07
107417
57395
47728.9
46328.2
47871.2
51424.3
57530.6
67367.8
82887.7
107303
144280
197223
270352
367737
488964
627840
776496
926728
1.07063e+06
1.20981e+06
1.34689e+06
1.49532e+06
1.67676e+06
1.9512e+06
2.40385e+06
3.17858e+06
4.4492e+06
6.28527e+06
8.61791e+06
1.51326e+07
109525
58482.7
48338.1
46659.1
48342.3
52341.4
59564.9
71876.4
91938.7
123674
171445
239135
330067
446570
586653
741929
903542
1.06305e+06
1.21506e+06
1.36299e+06
1.51013e+06
1.67269e+06
1.87666e+06
2.18675e+06
2.70182e+06
3.56338e+06
4.92302e+06
6.82192e+06
9.16641e+06
1.58085e+07
111951
59679.6
49061.7
47169
49053.8
53827.3
62592.9
78215.5
104281
145450
206915
292954
405118
542373
700444
870635
1.04369e+06
1.21186e+06
1.37307e+06
1.53212e+06
1.6935e+06
1.87647e+06
2.1113e+06
2.46333e+06
3.05234e+06
4.00747e+06
5.45827e+06
7.41105e+06
9.73007e+06
1.64843e+07
114805
60942.1
49843.6
47809.5
50004.4
55888.2
66933.5
87095.4
120986
174326
252443
360143
495997
654724
829933
1.01298e+06
1.19619e+06
1.37325e+06
1.54499e+06
1.71723e+06
1.89719e+06
2.10794e+06
2.38235e+06
2.78899e+06
3.45526e+06
4.51239e+06
6.0527e+06
8.05443e+06
1.03499e+07
1.72296e+07
117326
62338.1
50672.4
48570.5
51225.3
58626.6
73040.8
99335
143406
212116
310457
441953
602252
782120
972709
1.16719e+06
1.36028e+06
1.54713e+06
1.73126e+06
1.92054e+06
2.12463e+06
2.37281e+06
2.69777e+06
3.16813e+06
3.91406e+06
5.08036e+06
6.70762e+06
8.74006e+06
1.10073e+07
1.81268e+07
120150
63816.7
51604
49573
52942.1
62476.9
81574.3
116200
173486
261231
383313
539650
722941
921728
1.12665e+06
1.33146e+06
1.53441e+06
1.73302e+06
1.93269e+06
2.14442e+06
2.37994e+06
2.67652e+06
3.06555e+06
3.61029e+06
4.43362e+06
5.7027e+06
7.40678e+06
9.43936e+06
1.16708e+07
1.88759e+07
123779
65274.2
52654
50907.3
55455
67956
93530.4
139372
213625
324245
472553
653506
857065
1.07205e+06
1.29007e+06
1.50576e+06
1.7205e+06
1.93522e+06
2.15592e+06
2.39602e+06
2.66994e+06
3.02503e+06
3.49775e+06
4.12567e+06
5.02571e+06
6.38189e+06
8.14005e+06
1.01558e+07
1.23118e+07
1.94758e+07
127661
66734.9
53792.8
52519.2
58847.8
75577.6
109982
170263
266302
403551
578895
782917
1.00426e+06
1.23388e+06
1.46395e+06
1.69274e+06
1.92373e+06
2.1616e+06
2.41165e+06
2.6891e+06
3.01154e+06
3.4287e+06
3.99594e+06
4.72942e+06
5.70332e+06
7.1196e+06
8.90408e+06
1.08915e+07
1.2949e+07
1.99863e+07
131425
67888.1
54857.9
54460.1
63195
85987.9
132038
210733
332862
498763
700173
925678
1.16407e+06
1.40718e+06
1.65061e+06
1.89734e+06
2.15046e+06
2.42041e+06
2.71114e+06
3.03863e+06
3.42566e+06
3.90755e+06
4.5713e+06
5.42875e+06
6.47743e+06
7.91092e+06
9.69461e+06
1.16131e+07
1.34942e+07
2.06265e+07
134774
68517.1
55726.1
56719.4
69016.5
100056
161129
262865
413726
608722
835483
1.08188e+06
1.33696e+06
1.59483e+06
1.8564e+06
2.12642e+06
2.41016e+06
2.72268e+06
3.06698e+06
3.46243e+06
3.9244e+06
4.48937e+06
5.25259e+06
6.23156e+06
7.35164e+06
8.75593e+06
1.04949e+07
1.22987e+07
1.40077e+07
2.10391e+07
137965
68890
56564
59357.3
76653.9
118817
199146
328246
509761
733679
985146
1.25149e+06
1.52484e+06
1.8028e+06
2.089e+06
2.38912e+06
2.71344e+06
3.0811e+06
3.4955e+06
3.97488e+06
4.52843e+06
5.19372e+06
6.0687e+06
7.15628e+06
8.32729e+06
9.65487e+06
1.1274e+07
1.28605e+07
1.43724e+07
2.14703e+07
141168
69339.1
57632.4
62777.5
86910
143645
248081
408075
620970
872675
1.14793e+06
1.43517e+06
1.73062e+06
2.03618e+06
2.35465e+06
2.69524e+06
3.07195e+06
3.51058e+06
4.01363e+06
4.59496e+06
5.26247e+06
6.04939e+06
7.03803e+06
8.23111e+06
9.40999e+06
1.05908e+07
1.1972e+07
1.33275e+07
1.47458e+07
2.16251e+07
144084
69940.6
59068.5
67574.8
100796
176310
309612
502430
746152
1.0241e+06
1.32262e+06
1.63403e+06
1.95764e+06
2.2988e+06
2.66074e+06
3.05527e+06
3.49999e+06
4.02624e+06
4.64088e+06
5.34892e+06
6.1507e+06
7.08154e+06
8.20713e+06
9.48566e+06
1.06136e+07
1.15582e+07
1.25533e+07
1.35901e+07
1.49233e+07
2.18821e+07
147112
70728.9
61043.3
74187.1
119551
218492
384500
610311
882075
1.18551e+06
1.50981e+06
1.85034e+06
2.21057e+06
2.59816e+06
3.01723e+06
3.48266e+06
4.0148e+06
4.64579e+06
5.40053e+06
6.26586e+06
7.23074e+06
8.33337e+06
9.61395e+06
1.09564e+07
1.19639e+07
1.25515e+07
1.3035e+07
1.3739e+07
1.51454e+07
2.19353e+07
150148
71662.2
63488.9
82919.4
144221
271604
472111
729689
1.02636e+06
1.35596e+06
1.70951e+06
2.08586e+06
2.49373e+06
2.94153e+06
3.4352e+06
3.99226e+06
4.63541e+06
5.3994e+06
6.31865e+06
7.37694e+06
8.54529e+06
9.85419e+06
1.13064e+07
1.26932e+07
1.35167e+07
1.36306e+07
1.3483e+07
1.378e+07
1.51911e+07
2.22509e+07
153345
72698.6
66526.5
94331.1
175829
335607
570393
858829
1.18225e+06
1.53941e+06
1.92631e+06
2.34732e+06
2.81392e+06
3.33827e+06
3.92736e+06
4.60029e+06
5.3851e+06
6.31766e+06
7.43516e+06
8.72265e+06
1.01398e+07
1.17005e+07
1.33505e+07
1.47721e+07
1.53878e+07
1.50279e+07
1.43144e+07
1.4306e+07
1.58119e+07
2.17765e+07
155202
73263.5
70532.5
109405
215668
410650
679582
1.00022e+06
1.35594e+06
1.74413e+06
2.17129e+06
2.6458e+06
3.18315e+06
3.801e+06
4.50779e+06
5.32714e+06
6.28708e+06
7.43116e+06
8.79717e+06