/*--------------------------------*- C++ -*----------------------------------*\
| =========                 |                                                 |
| \\      /  F ield         | OpenFOAM: The Open Source CFD Toolbox           |
|  \\    /   O peration     | Version:  2112                                  |
|   \\  /    A nd           | Website:  www.openfoam.com                      |
|    \\/     M anipulation  |                                                 |
\*---------------------------------------------------------------------------*/
FoamFile
{
    version     2.0;
    format      ascii;
    arch        "LSB;label=32;scalar=64";
    class       surfaceScalarField;
    location    "0.00272";
    object      phi;
}
// * * * * * * * * * * * * * * * * * * * * * * * * * * * * * * * * * * * * * //

dimensions      [1 0 -1 0 0 0 0];

oriented        oriented;

internalField   nonuniform List<scalar> 
27436
(
-0.533351
8.19267
-0.0932953
7.47149
-0.0828496
7.78569
-0.0692819
7.78644
-0.0693991
7.79288
-0.0542728
7.78192
-0.0403815
7.78296
-0.0295225
7.78526
-0.0195838
7.78761
-0.0110035
7.78858
-0.00260083
7.78876
0.00345981
7.79133
0.0148257
7.78693
0.0284518
7.785
0.0388963
7.78733
0.0451664
7.79049
0.0562213
7.78627
0.0643321
7.78694
0.0788336
7.78226
0.0953108
7.78085
0.095585
7.79247
0.111067
7.78555
0.124006
7.78212
0.574162
7.46272
8.21759
-0.247165
8.43982
-0.0963561
7.32065
-0.0817466
7.77106
-0.0572482
7.76197
-0.0555286
7.79118
-0.0473893
7.77398
-0.0381989
7.77357
-0.0405541
7.78692
-0.0226829
7.76789
-0.0125596
7.77655
-0.00208426
7.77706
0.00781581
7.78042
0.01992
7.77528
0.0192568
7.78491
0.0316365
7.77481
0.041528
7.77998
0.0606445
7.76722
0.0569191
7.79085
0.0664317
7.77283
0.0754003
7.77177
0.0734422
7.79424
0.103117
7.75582
0.114376
7.7711
0.267655
7.30873
8.47824
-0.227277
8.66709
-0.141136
7.23454
-0.120509
7.75044
-0.107659
7.74915
-0.0982923
7.78183
-0.0935054
7.76928
-0.0905711
7.77048
-0.0868337
7.78402
-0.0729827
7.76219
-0.0479503
7.7617
-0.0403786
7.76847
-0.0276099
7.76303
-0.0131189
7.75881
-0.011736
7.78101
0.000771072
7.76213
0.0226574
7.75717
0.0419474
7.74798
0.0444101
7.78847
0.0477086
7.76967
0.052265
7.76715
0.0627335
7.78374
0.0786981
7.73985
0.100601
7.74947
0.192514
7.21479
8.66962
-0.169767
8.83685
-0.139773
7.20455
-0.134609
7.7453
-0.112617
7.72723
-0.104697
7.77391
-0.0992773
7.76391
-0.0958383
7.76685
-0.0827902
7.77182
-0.0685495
7.75148
-0.046911
7.74513
-0.0317028
7.75319
-0.016924
7.74504
-0.000841164
7.74044
0.00704327
7.77115
0.0249614
7.7435
0.0495877
7.73252
0.0640115
7.73368
0.0758707
7.77661
0.0791346
7.76654
0.0848758
7.76133
0.0922601
7.77637
0.118352
7.71391
0.111323
7.75652
0.162254
7.16359
8.83759
-0.0738608
8.91071
-0.0367048
7.16744
-0.0913343
7.79995
-0.0585213
7.69445
-0.0594095
7.77481
-0.0592133
7.76369
-0.0593628
7.76695
-0.0489035
7.7624
-0.0361268
7.74207
-0.0175265
7.73168
-0.00546917
7.74193
0.00739309
7.72793
0.0223289
7.72371
0.0295481
7.76498
0.0471829
7.72498
0.0694563
7.70963
0.0796757
7.72361
0.0899172
7.76628
0.0887414
7.76786
0.0896426
7.76039
0.0927202
7.77329
0.123806
7.68287
0.0897339
7.79062
0.096672
7.15742
8.94021
0.117488
8.79323
0.0433751
7.24158
-0.0491741
7.89252
-0.00799846
7.65333
-0.0217121
7.78857
-0.0294457
7.77138
-0.0334734
7.771
-0.0282168
7.7579
-0.020108
7.73728
-0.00558218
7.72371
0.00231033
7.7354
0.00944549
7.71675
0.0195133
7.71204
0.027946
7.76619
0.0410559
7.71065
0.0584493
7.69175
0.0637849
7.7185
0.0688801
7.76089
0.0632949
7.77348
0.0571614
7.76649
0.0463875
7.78408
0.0864217
7.64283
-0.0141349
7.89102
-0.0201501
7.16363
8.92166
0.303861
8.48942
0.135813
7.40969
-0.0042485
8.03313
0.0283229
7.62029
-0.0110001
7.82798
-0.043385
7.80379
-0.0690416
7.79691
-0.0828508
7.77251
-0.0972659
7.75493
-0.102047
7.73475
-0.11146
7.74602
-0.128648
7.73103
-0.139739
7.72087
-0.144513
7.77547
-0.148737
7.71309
-0.150275
7.69286
-0.169106
7.73763
-0.184038
7.77542
-0.209861
7.79935
-0.241959
7.79859
-0.269686
7.81179
-0.288099
7.66127
-0.354373
7.95702
-0.657928
7.46741
8.26301
0.872684
7.61677
0.521063
7.76138
0.414195
8.14006
0.338148
7.69635
0.277706
7.88863
0.225549
7.85615
0.184212
7.83873
0.153402
7.80413
0.12432
7.78555
0.105587
7.76184
0.0841085
7.76878
0.0533281
7.75963
0.0300045
7.74105
0.0109324
7.79717
-0.00733956
7.72926
-0.0259349
7.71089
-0.0561774
7.7683
-0.0877114
7.80648
-0.128524
7.84018
-0.178016
7.84811
-0.235041
7.86881
-0.283046
7.70921
-0.406739
8.08038
-0.693888
7.75471
7.56546
0.595179
7.02229
0.410109
7.9468
0.241215
8.30908
0.19596
7.74171
0.142536
7.94238
0.102666
7.89657
0.0801404
7.86199
0.0688707
7.81645
0.0634157
7.79206
0.0677366
7.76635
0.0721061
7.7658
0.0682728
7.76185
0.0688605
7.73766
0.0809527
7.78366
0.0877357
7.72029
0.088773
7.70955
0.0815861
7.77592
0.0739045
7.81354
0.0530881
7.86113
0.0167508
7.88462
-0.03346
7.91898
-0.0494891
7.72499
-0.220037
8.25038
-0.372794
7.90712
7.18916
-3.02963
10.0521
-3.38256
8.29973
-2.76347
7.69011
-2.61072
7.58945
-2.30671
7.63978
-2.00743
7.59878
-1.70256
7.55833
-1.3855
7.49917
-1.09975
7.50645
-0.814082
7.48535
-0.510852
7.4624
-0.209593
7.45955
0.0918041
7.43445
0.413729
7.45518
0.714998
7.4167
0.992374
7.43246
1.28593
7.48273
1.60596
7.49262
1.90479
7.56246
2.19604
7.59385
2.50343
7.61203
2.63518
7.59321
3.21066
7.67427
2.93479
8.18228
10.1243
-4.21054
14.2662
-4.46493
8.55522
-4.14552
7.3715
-3.82051
7.26578
-3.39536
7.21737
-2.91111
7.11767
-2.40755
7.05675
-1.94524
7.03425
-1.49512
7.05274
-1.04642
7.03406
-0.586548
7.00059
-0.119757
6.99287
0.346705
6.96786
0.828247
6.96447
1.28567
6.95665
1.71386
7.00509
2.17727
7.0199
2.65416
7.01493
3.1537
7.06208
3.64262
7.10514
4.07111
7.18485
4.38928
7.27582
4.58388
7.47878
4.51621
8.24846
14.643
-2.60558
16.8753
-5.24925
11.2015
-4.93748
7.05321
-4.20512
6.53807
-3.83839
6.85864
-3.35058
6.63499
-2.81817
6.52408
-2.30595
6.5145
-1.79739
6.53456
-1.28486
6.51238
-0.76999
6.48223
-0.248887
6.47235
0.27493
6.44655
0.793588
6.43667
1.30206
6.44582
1.82691
6.48344
2.34241
6.50566
2.8592
6.49685
3.40028
6.51815
3.89547
6.60924
4.29937
6.78448
5.03466
6.54388
4.87384
7.63784
2.69321
10.4268
17.338
2.3138
14.5655
0.903239
12.5274
-4.40971
12.4724
-3.74125
5.88708
-4.05433
7.18531
-3.60173
6.18877
-3.03729
5.95418
-2.49812
5.96198
-1.96963
5.99274
-1.42481
5.95886
-0.868251
5.9244
-0.322852
5.92934
0.240952
5.88951
0.778895
5.89509
1.32591
5.90179
1.8844
5.9345
2.42923
5.96274
2.97053
5.95272
3.53631
5.94432
4.00381
6.14036
3.86458
6.93159
4.84286
5.56996
-0.606386
13.0856
-2.38534
12.2028
14.9539
2.45438
12.1134
3.26583
11.7077
3.76105
11.9687
-0.380884
10.0433
-4.366
11.1853
-4.11977
5.94858
-3.39468
5.22774
-2.93202
5.4938
-2.30839
5.36358
-1.76452
5.41424
-1.12422
5.28758
-0.572693
5.38273
0.052838
5.27509
0.617779
5.33898
1.23131
5.30305
1.8077
5.37177
2.43223
5.34079
2.92481
5.45507
3.61311
5.24939
3.69701
6.05983
-0.409147
11.0501
-4.66063
9.81978
-3.77416
12.1944
-2.91671
11.3442
12.0402
1.73896
10.3758
3.57742
9.86929
5.08989
10.4476
5.65608
9.48702
5.26694
11.5929
1.72715
9.49426
0.330274
6.62922
-0.76939
6.59473
-0.811628
5.41091
-0.759419
5.37582
-0.361532
4.89812
-0.0629854
5.09239
0.435377
4.78347
0.729412
5.05743
1.1234
4.92294
1.25434
5.25171
1.21828
5.378
0.0976142
6.57197
-1.40353
6.75375
-4.30934
8.97429
-4.62953
11.3806
-4.16868
9.35591
-2.43779
10.4573
-1.12273
10.0316
10.9216
0.887247
9.48774
1.67672
9.07792
2.92869
9.19038
3.66486
8.75516
3.42599
11.8399
1.54098
11.398
0.276635
7.91877
-0.31581
7.20756
-0.33146
5.45214
-0.346646
5.41209
-0.0926542
4.67084
-0.176232
5.18771
0.117148
4.51168
0.19258
4.9995
0.395613
4.73682
0.498591
5.15859
0.605843
5.2816
0.173663
7.01729
-0.624544
7.57299
-2.14693
10.5081
-2.51515
11.7469
-2.02896
8.86616
-1.05096
9.48192
-0.293573
9.27763
10.6328
1.42471
8.06234
2.14072
8.36478
1.70369
9.62634
0.779946
9.66836
-0.553888
13.1635
-0.617012
11.4642
0.294156
7.01768
0.923772
6.5823
0.668762
5.70495
0.684338
5.39304
0.30123
5.04612
0.324151
5.16511
-0.057501
4.88607
-0.140337
5.07919
-0.458924
5.05136
-0.590609
5.28963
-0.947916
5.63948
-0.444665
6.51514
0.225736
6.90888
0.155704
10.5822
-1.09546
12.9977
-1.95945
9.72461
-2.4256
9.95181
-2.08284
8.941
8.55475
1.62849
6.43961
1.23914
8.76059
0.350414
10.5138
-0.313612
10.3176
1.4278
11.4027
2.70188
10.1825
2.04571
7.67112
1.84259
6.7857
1.35647
6.18875
0.891992
5.85614
0.384363
5.55189
-0.0151526
5.56336
-0.529914
5.4001
-0.963866
5.51165
-1.46396
5.55053
-1.97881
5.80371
-2.50698
6.16601
-2.68146
6.6877
-3.31832
7.5428
-2.59862
9.85526
-0.941688
11.3397
-1.79338
10.5766
-2.65525
10.8203
-2.33113
8.62371
6.22959
3.23823
3.20677
5.73946
6.26908
5.93109
10.3147
5.85852
10.3788
6.44974
10.8019
6.09531
10.5304
4.79604
8.96754
3.85165
7.73033
3.03177
7.0068
2.24191
6.64549
1.45545
6.33731
0.71457
6.30368
-0.0491013
6.16423
-0.789615
6.25298
-1.55958
6.32135
-2.33417
6.57821
-3.10633
6.93703
-3.97603
7.55644
-5.20646
8.77177
-5.75468
10.402
-5.18207
10.769
-4.99199
10.3953
-4.77734
10.6076
-2.97
6.82214
3.26362
1.47208
1.73671
3.46383
4.28795
5.03813
8.74229
5.70871
9.70386
6.30123
10.2057
6.21867
10.6103
5.15953
10.0245
3.95284
8.93695
2.91652
8.04084
2.01307
7.5467
1.1564
7.19159
0.322053
7.13682
-0.521921
7.00853
-1.36371
7.09575
-2.22392
7.18202
-3.14552
7.49933
-4.19716
7.98757
-5.46713
8.82514
-6.673
9.9759
-6.86421
10.5928
-6.30668
10.2131
-5.69922
9.79045
-3.95552
8.86557
-1.52479
4.40404
1.74147
0.186585
1.55029
0.189715
4.28725
1.67669
7.25648
2.95889
8.42069
3.80378
9.36107
4.07184
10.3427
3.63603
10.4598
2.90577
9.66706
2.1823
8.762
1.49993
8.22574
0.806291
7.88206
0.130497
7.81104
-0.571419
7.71048
-1.25816
7.78299
-1.96934
7.89344
-2.68998
8.2198
-3.46922
8.76622
-4.28953
9.64464
-4.76911
10.4527
-4.44117
10.2643
-3.52265
9.29567
-2.15847
8.42799
-0.545721
7.25574
-0.277531
4.14157
1.46681
-0.949956
2.49853
-0.887757
4.22359
0.270503
6.10022
1.1987
7.48965
1.93729
8.62202
2.26012
10.018
2.22074
10.4972
1.92425
9.96433
1.51806
9.16523
1.08616
8.65227
0.633044
8.33123
0.159703
8.28255
-0.321282
8.19108
-0.801126
8.26249
-1.25704
8.34918
-1.69681
8.65963
-2.10521
9.17483
-2.39557
9.93508
-2.41086
10.4669
-2.05437
9.9065
-1.26147
8.50245
-0.263821
7.43175
0.85892
6.13772
0.994745
4.00972
2.46492
-0.878254
3.3707
-1.2251
4.56783
-0.844264
5.71588
-0.207295
6.85111
0.34688
8.06837
0.671197
9.68829
0.901998
10.2668
0.987294
9.88004
0.899681
9.2478
0.709919
8.83613
0.461192
8.57678
0.212606
8.52956
-0.0646204
8.4674
-0.312787
8.50969
-0.553124
8.58872
-0.724865
8.83079
-0.77883
9.22898
-0.661272
9.81886
-0.411455
10.218
-0.12949
9.62607
0.436993
7.93733
1.08437
6.78601
1.39812
5.82761
0.895815
4.51828
3.36454
-0.747448
4.11479
-1.53374
5.34847
-1.66877
5.84665
-1.46107
6.63929
-1.16438
7.76828
-0.745343
9.26479
-0.334441
9.85908
-0.0727892
9.61656
0.0414829
9.12834
0.071667
8.80281
0.0342729
8.61271
-0.0503452
8.61321
-0.143522
8.55947
-0.23362
8.59851
-0.272149
8.62579
-0.248536
8.80586
-0.144032
9.12325
0.109815
9.56485
0.543904
9.78631
1.01239
9.15865
1.30166
7.6496
1.54555
6.54445
1.47226
5.9033
0.669292
5.32626
4.0354
-0.424109
4.52984
-1.17697
6.09601
-1.66065
6.32717
-1.72197
6.69981
-1.59054
7.63555
-1.2024
8.87663
-0.746148
9.40516
-0.408548
9.27658
-0.204261
8.92188
-0.105989
8.7053
-0.0800378
8.58695
-0.0649355
8.59735
-0.0721908
8.56498
-0.0588668
8.58337
-0.0358973
8.60159
0.0660681
8.70211
0.289695
8.89714
0.644939
9.2083
1.12115
9.31046
1.5258
8.75618
1.63374
7.54445
1.55862
6.62185
1.11636
6.34865
0.345661
6.10162
4.38354
-0.281761
4.80534
-1.09621
6.90671
-1.7311
6.95701
-1.91587
6.88412
-1.86506
7.58423
-1.51648
8.5289
-1.08157
8.97083
-0.710627
8.90538
-0.445441
8.66167
-0.254364
8.51854
-0.107874
8.44125
0.000403526
8.48827
0.0952188
8.46788
0.197509
8.4789
0.350307
8.44716
0.547762
8.50334
0.821153
8.62129
1.20903
8.81793
1.65265
8.86644
2.00325
8.4058
2.04483
7.50411
1.85406
6.81449
1.25537
6.95015
0.384777
6.97416
4.77577
-0.368632
5.17288
-1.41038
7.94723
-1.85469
7.40164
-2.17953
7.20946
-2.21504
7.62192
-1.94993
8.26818
-1.53139
8.55369
-1.12378
8.50379
-0.801051
8.34789
-0.572845
8.29454
-0.404218
8.27299
-0.234429
8.31698
-0.0713043
8.30271
0.102338
8.3028
0.279388
8.26849
0.509743
8.27174
0.827228
8.30154
1.21989
8.42322
1.6306
8.45467
1.90378
8.13286
1.908
7.50095
1.61479
7.10851
1.18491
7.38202
0.240607
7.9136
5.02163
-0.389236
5.56452
-1.17665
8.73182
-1.59739
7.82226
-1.93644
7.55107
-1.98763
7.67649
-1.7606
8.04314
-1.41078
8.20658
-1.05622
8.15867
-0.757523
8.0583
-0.504234
8.04385
-0.269193
8.03749
-0.0712608
8.1173
0.129787
8.09969
0.329836
8.10065
0.571895
8.02444
0.831178
8.01128
1.13265
7.99818
1.49484
8.05885
1.84732
8.10028
2.04806
7.93199
1.99549
7.55507
1.63328
7.47155
1.22138
7.79504
0.47168
8.66649
5.49911
-0.51307
6.08591
-1.12986
9.35003
-1.57265
8.26565
-1.76253
7.74349
-1.9195
7.83612
-1.78402
7.91122
-1.45847
7.88708
-1.09386
7.80438
-0.766369
7.7361
-0.494974
7.77268
-0.261366
7.803
-0.0155017
7.86971
0.216552
7.86618
0.463736
7.8517
0.694742
7.79166
0.969044
7.73568
1.29271
7.67276
1.64848
7.70118
1.97429
7.77412
2.0965
7.80992
1.93432
7.71879
1.76905
7.63927
1.37602
8.19251
0.751143
9.29585
6.2571
-0.886968
6.98349
-1.35935
9.82678
-1.79555
8.7037
-1.98347
7.93317
-2.09878
7.95511
-1.99538
7.80938
-1.72227
7.61837
-1.40121
7.48905
-1.10636
7.44105
-0.83142
7.49598
-0.546991
7.51733
-0.298057
7.61971
-0.0324935
7.59976
0.224604
7.59319
0.516548
7.49821
0.797905
7.45307
1.08537
7.38361
1.38765
7.39719
1.64919
7.51051
1.74047
7.71867
1.66627
7.79318
1.48489
7.82236
1.09088
8.58628
0.571317
9.82022
6.82656
-0.608695
7.59462
-1.23125
10.4515
-1.60224
9.07271
-1.76576
8.09653
-1.75973
7.94954
-1.67916
7.72957
-1.45449
7.39596
-1.17001
7.20506
-0.879444
7.1467
-0.598809
7.21342
-0.344868
7.26274
-0.063623
7.33805
0.202984
7.33282
0.479457
7.31606
0.73098
7.24562
1.01145
7.17171
1.29851
7.09553
1.56584
7.12868
1.78183
7.29454
1.84973
7.65145
1.83988
7.80484
1.64589
8.01746
1.37485
8.86562
0.817642
10.381
7.64056
-0.267212
7.85606
-0.730397
10.9187
-1.47629
9.8194
-1.57
8.18921
-1.59914
7.97802
-1.49645
7.62519
-1.29277
7.1907
-1.07625
6.9849
-0.848564
6.91338
-0.604252
6.96694
-0.321044
6.97918
-0.0663312
7.0836
0.200689
7.06622
0.449439
7.06732
0.729984
6.9647
0.975068
6.92619
1.19955
6.87071
1.41329
6.91419
1.61662
7.08999
1.71601
7.55179
1.7005
7.82029
1.70495
8.01366
1.01441
9.55871
0.512918
10.8829
8.15237
-0.483728
8.32914
-0.897272
11.3307
-1.72477
10.6435
-1.74288
8.20749
-1.7219
7.95311
-1.6118
7.51225
-1.43826
7.01196
-1.21135
6.7519
-0.980377
6.67804
-0.727638
6.71343
-0.491388
6.74309
-0.220378
6.8135
0.0403977
6.80631
0.314872
6.79341
0.552175
6.72759
0.804415
6.67419
1.03725
6.63832
1.25189
6.70013
1.40148
6.94166
1.50507
7.44954
1.48841
7.83831
1.4037
8.09824
0.571907
10.3895
0.214679
11.2373
8.36803
-0.104775
8.42626
-0.467346
11.6947
-1.11796
11.2898
-1.46277
8.54801
-1.48018
7.96615
-1.3382
7.36578
-1.16741
6.83518
-0.983971
6.56315
-0.793426
6.48527
-0.581663
6.50165
-0.312963
6.47483
-0.0672273
6.56903
0.194692
6.54562
0.434283
6.55471
0.697004
6.46555
0.908311
6.46349
1.09083
6.45656
1.27533
6.51655
1.4591
6.75986
1.58456
7.32544
1.58097
7.84319
1.39727
8.28287
0.582579
11.1975
0.249076
11.5688
8.62001
0.0465601
8.37056
-0.0903295
11.832
-0.767049
11.9732
-1.38149
9.16329
-1.29249
7.87304
-1.21915
7.28649
-1.07136
6.68163
-0.91227
6.40046
-0.721175
6.29329
-0.504614
6.28576
-0.308865
6.28007
-0.0713889
6.33303
0.155964
6.31963
0.395195
6.31667
0.588637
6.27302
0.800352
6.25255
0.988979
6.26891
1.13405
6.37237
1.28378
6.61227
1.36561
7.24549
1.54713
7.66334
0.811141
9.01986
0.226114
11.7788
-0.0199157
11.8125
8.60154
-0.24599
8.60946
-0.335436
11.9231
-0.704652
12.3453
-1.37561
9.83103
-1.36522
7.85628
-1.27612
7.19218
-1.11315
6.51286
-0.951972
6.2382
-0.802443
6.14429
-0.641958
6.12667
-0.407298
6.04605
-0.199627
6.12669
0.0299808
6.09141
0.23896
6.1089
0.471502
6.04156
0.636777
6.08814
0.785042
6.12122
0.94651
6.2124
1.11
6.45233
1.15473
7.20382
1.10952
7.71116
0.385089
9.74338
-0.0855804
12.2446
-0.126421
11.8511
8.47507
-0.0716667
8.68065
0.0393189
11.816
-0.226157
12.618
-0.991544
10.5939
-1.15093
8.01182
-1.06105
7.09753
-0.95602
6.4051
-0.805959
6.08823
-0.629789
5.96868
-0.429544
5.92712
-0.264994
5.88219
-0.0488937
5.91177
0.15239
5.89136
0.366744
5.8957
0.524296
5.88506
0.71304
5.90011
0.889824
5.94525
1.02186
6.08085
1.14036
6.33612
1.30013
7.04726
1.10747
7.90802
0.385919
10.4677
0.136526
12.4922
0.198558
11.7859
8.67453
0.0625658
8.62237
0.17107
11.7097
0.231569
12.5641
-0.460589
11.281
-1.04127
8.58988
-0.908989
6.96127
-0.824843
6.31914
-0.701856
5.9661
-0.565265
5.83246
-0.428877
5.79167
-0.228939
5.68247
-0.0616904
5.74537
0.130753
5.69982
0.295186
5.73219
0.495786
5.68553
0.632174
5.76444
0.762246
5.81579
0.888063
5.95592
0.977161
6.24926
1.15045
6.87675
0.594728
8.46675
-0.0561996
11.1184
-0.0668249
12.4985
0.0322808
11.6859
8.70861
-0.186703
8.81445
-0.16766
11.6919
0.0297097
12.3747
-0.385385
11.6906
-0.96135
9.16225
-1.0204
7.018
-0.886654
6.1861
-0.797306
5.87695
-0.657701
5.69322
-0.47399
5.60802
-0.331514
5.53982
-0.148771
5.56306
0.0142857
5.53728
0.197288
5.54983
0.333632
5.54996
0.509485
5.58922
0.650291
5.67537
0.721867
5.88508
0.819248
6.15368
0.713064
6.98643
0.0139154
9.16879
-0.450331
11.5861
-0.139307
12.1854
-0.0451675
11.5914
8.66419
-0.0330652
8.85326
0.0511429
11.6102
0.431452
11.9958
0.155725
11.9569
-0.589133
9.9054
-0.829761
7.25859
-0.674209
6.03137
-0.602068
5.80546
-0.48544
5.57619
-0.368037
5.49071
-0.193041
5.36434
-0.0454117
5.41554
0.125569
5.36646
0.270186
5.40552
0.446145
5.37466
0.563393
5.4725
0.676423
5.56269
0.75676
5.80603
0.917663
5.99496
0.683314
7.2236
-0.0582282
9.91242
-0.240783
11.7702
0.140488
11.8009
0.172762
11.5594
8.83824
0.0832157
8.77381
0.155934
11.5398
0.422791
11.7304
0.524271
11.8481
-0.0579865
10.4838
-0.552984
7.75103
-0.635871
6.11606
-0.5399
5.70918
-0.460575
5.49648
-0.308537
5.33734
-0.192167
5.24699
-0.0388412
5.26184
0.0966154
5.23087
0.251028
5.25108
0.365122
5.26086
0.517523
5.32033
0.597931
5.48292
0.718405
5.68538
0.652884
6.0611
0.214641
7.66366
-0.333214
10.4603
-0.279785
11.7168
0.00339819
11.5179
0.060197
11.5032
8.90272
-0.107509
8.88391
-0.0563649
11.4894
0.163309
11.5107
0.491569
11.5156
0.0390515
10.9411
-0.493578
8.2806
-0.644032
6.2671
-0.554017
5.61827
-0.475573
5.41734
-0.39501
5.25655
-0.250245
5.10132
-0.131591
5.14275
0.0117751
5.08719
0.13865
5.12412
0.279888
5.12002
0.354841
5.24628
0.429986
5.4091
0.507842
5.60901
0.25984
6.31051
-0.402057
8.32612
-0.779992
10.8375
-0.37861
11.3159
-0.204453
11.343
-0.138058
11.4387
8.76949
0.0420433
8.84269
0.104449
11.4274
0.270742
11.3452
0.631724
11.1581
0.630581
10.9422
0.00212409
8.91048
-0.433482
6.70426
-0.466917
5.65161
-0.374004
5.32324
-0.254515
5.13503
-0.164188
5.00964
-0.0305733
5.00839
0.0883294
4.96789
0.215694
4.99643
0.308241
5.02775
0.428641
5.12645
0.520583
5.31778
0.479883
5.65103
0.0770387
6.71416
-0.50299
8.90669
-0.42826
10.7604
-0.11145
10.9962
0.0561663
11.1756
0.115493
11.3809
8.88903
0.175452
8.66847
0.29697
11.3056
0.413707
11.2292
0.630154
10.9414
0.904852
10.6676
0.323852
9.4929
-0.136039
7.16469
-0.320282
5.83482
-0.270342
5.27155
-0.22643
5.09077
-0.128969
4.91161
-0.0322279
4.91125
0.083819
4.85153
0.181007
4.89923
0.278377
4.93087
0.335439
5.07044
0.385569
5.26918
0.21924
5.81803
-0.251077
7.18476
-0.816627
9.47088
-0.474468
10.4167
-0.235795
10.7569
-0.128521
11.067
-0.0571314
11.311
8.83437
-0.0184787
8.68828
0.0711888
11.2177
0.156663
11.1417
0.396192
10.6992
0.822807
10.2424
0.64528
9.66979
-0.00809723
7.81909
-0.3403
6.16783
-0.333582
5.26394
-0.252409
5.00809
-0.180458
4.83896
-0.0889933
4.81937
0.00362737
4.75876
0.0926281
4.81011
0.155276
4.86885
0.218469
5.00816
0.18712
5.30162
-0.149168
6.15481
-0.795873
7.83232
-0.90853
9.58114
-0.572829
10.0784
-0.350144
10.5341
-0.287707
11.0045
-0.153299
11.1771
8.68082
0.113327
8.57735
0.296795
11.0338
0.360986
11.074
0.535641
10.5236
0.822061
9.95622
0.967153
9.52534
0.472489
8.31366
-0.0244178
6.66538
-0.176219
5.41348
-0.168016
4.99996
-0.0916788
4.7629
-0.0222641
4.74999
0.0569476
4.67968
0.127369
4.74027
0.198969
4.79842
0.217327
4.99105
0.0211621
5.49886
-0.460096
6.63566
-0.89473
8.26559
-0.6689
9.3535
-0.416943
9.82439
-0.233392
10.3472
-0.176034
10.9462
-0.0361646
11.0371
8.64515
0.171618
8.40871
0.381149
10.8256
0.451527
11.0037
0.585824
10.3886
0.812274
9.72918
1.16404
9.17317
0.851157
8.62729
0.216164
7.30522
-0.0358913
5.66533
-0.0927132
5.05593
-0.0508164
4.7213
-0.00201775
4.70198
0.0454979
4.63314
0.0997179
4.68651
0.13855
4.76065
0.0994792
5.03151
-0.167789
5.76689
-0.783341
7.25149
-0.991025
8.47209
-0.677541
9.03775
-0.442365
9.58664
-0.311335
10.2144
-0.250236
10.8845
-0.0815384
10.8669
8.5628
0.0420493
8.37017
0.244258
10.6238
0.351747
10.8931
0.42793
10.3106
0.611303
9.54424
0.855565
8.92864
0.971314
8.5118
0.631136
7.64523
0.0743071
6.22097
-0.109431
5.23934
-0.0870803
4.6999
-0.0506743
4.66646
-0.0232235
4.60669
0.0134368
4.65061
0.0059588
4.76949
-0.156587
5.19475
-0.782187
6.39292
-1.12083
7.58985
-0.9606
8.31085
-0.729377
8.80542
-0.577552
9.43355
-0.523584
10.1598
-0.415943
10.7759
-0.18419
10.6339
8.37913
0.0825638
8.29177
0.320796
10.3866
0.466738
10.747
0.560126
10.2175
0.68336
9.41944
0.827467
8.78488
1.17456
8.16585
0.905011
7.91534
0.328461
6.79984
0.0465709
5.52211
-0.00122944
4.74841
0.00218068
4.66411
0.00368597
4.60626
0.00709503
4.64805
-0.0621581
4.83988
-0.343208
5.47669
-0.769874
6.82114
-1.10115
7.92136
-0.794281
8.00274
-0.642614
8.65286
-0.528159
9.3184
-0.443017
10.0713
-0.306586
10.6368
-0.0671722
10.3933
8.31284
0.114004
8.18114
0.446011
10.0554
0.634593
10.557
0.644039
10.2062
0.708111
9.35447
0.876793
8.6164
1.05074
7.99275
1.18298
7.78278
0.884714
7.09779
0.20964
6.19738
0.0545348
4.90425
0.0194048
4.7003
-0.00161776
4.62852
-0.0331108
4.68076
-0.207043
5.01485
-0.855044
6.12545
-1.11531
7.08301
-0.950042
7.75566
-0.800988
7.85294
-0.649382
8.50178
-0.596013
9.26502
-0.568186
10.0444
-0.390538
10.4568
-0.0702488
10.0736
8.2447
0.0226344
-0.246629
0.0322682
-0.284348
0.0416937
-0.285181
0.0471991
-0.297603
0.0516402
-0.307369
0.054976
-0.322052
0.0578365
-0.336376
0.0623858
-0.354003
0.0706393
-0.37891
0.0842696
-0.41306
0.104753
-0.459134
0.131995
-0.513577
0.164478
-0.57382
0.198421
-0.63811
0.225795
-0.68871
0.19547
-0.723122
0.0733889
-0.60636
0.0248446
-0.187628
0.00511393
-0.0299909
-0.00162525
0.0316401
-0.00349949
0.048868
-0.00373322
0.0540136
-0.0034359
0.0554602
-0.00298397
0.0558285
-0.00240577
0.0558626
-0.00190733
0.055905
-0.00104756
0.0554296
-0.000752203
0.0559712
0.000739815
0.0526008
0.058119
0.0429118
-0.26591
0.0491073
-0.270686
0.0520461
-0.261473
0.0552188
-0.275065
0.0572099
-0.281193
0.0589598
-0.295187
0.0606125
-0.309766
0.0632947
-0.327273
0.069247
-0.350907
0.0810315
-0.384289
0.100514
-0.429975
0.127703
-0.484203
0.161464
-0.544613
0.19972
-0.613685
0.238465
-0.67344
0.268235
-0.715594
0.281824
-0.728141
0.0982756
-0.610368
0.0310207
-0.180533
0.00568702
-0.0198108
-0.00191884
0.0363408
-0.00370809
0.050144
-0.00376983
0.0540594
-0.00335231
0.0550347
-0.0027656
0.0551993
-0.00220243
0.0553147
-0.00151984
0.0547501
-0.00103919
0.0554852
-0.0010637
0.0526358
0.0570535
0.02273
-0.253337
0.0255883
-0.23894
0.0284166
-0.228796
0.0296114
-0.241631
0.0311321
-0.246153
0.0327467
-0.260234
0.0343286
-0.275322
0.0363284
-0.292296
0.0411823
-0.313277
0.0522884
-0.343166
0.072072
-0.387189
0.100756
-0.442678
0.136975
-0.506996
0.179033
-0.573798
0.224564
-0.64237
0.270794
-0.698194
0.307778
-0.73804
0.319674
-0.766373
0.101477
-0.634378
0.0301137
-0.166395
0.00556094
-0.00900456
-0.00120024
0.0397039
-0.00267902
0.0509051
-0.00269417
0.0538979
-0.00232107
0.0545803
-0.00187521
0.0547996
-0.00146019
0.0543295
-0.00103568
0.0550552
-0.00147146
0.0530776
0.0555837
0.00706113
-0.222529
0.00896389
-0.195664
0.0116706
-0.18849
0.0110737
-0.19555
0.0117889
-0.198786
0.0131237
-0.213707
0.0143236
-0.229783
0.0153725
-0.248387
0.0184197
-0.268882
0.0273318
-0.295182
0.0455508
-0.334943
0.0743555
-0.386367
0.113422
-0.449608
0.160602
-0.525832
0.211653
-0.609268
0.262697
-0.680468
0.311867
-0.736418
0.351924
-0.787996
0.352826
-0.810868
0.100607
-0.636504
0.0275703
-0.142246
0.00490099
0.00419511
-0.000785233
0.0427023
-0.00197545
0.0515387
-0.00191984
0.0537326
-0.00160319
0.0543034
-0.00131739
0.0540194
-0.00091407
0.054644
-0.00118144
0.0533485
0.0544051
0.00140125
-0.186074
9.67908e-05
-0.151827
0.000268167
-0.150384
-0.00341639
-0.148465
-0.0028971
-0.152937
-0.0025432
-0.167143
-0.00132561
-0.184366
-0.000592351
-0.204327
0.00115194
-0.225456
0.00793108
-0.250074
0.0240376
-0.288284
0.051031
-0.340424
0.0889286
-0.404527
0.137411
-0.477195
0.194819
-0.56144
0.25495
-0.654798
0.310282
-0.732996
0.361514
-0.789203
0.405218
-0.842046
0.378658
-0.84221
0.0948412
-0.592803
0.0234371
-0.107058
0.00374706
0.0181301
-0.000847142
0.0455796
-0.00162998
0.052008
-0.00149864
0.0536123
-0.00126857
0.0537083
-0.000855064
0.0542121
-0.000875126
0.0533694
0.053533
-0.00235716
-0.152574
-0.00533575
-0.1162
-0.00973188
-0.117195
-0.0145798
-0.109708
-0.0162139
-0.115446
-0.0168014
-0.128818
-0.0157748
-0.146984
-0.0148315
-0.168227
-0.0139431
-0.190918
-0.00974756
-0.215588
0.00483557
-0.251094
0.0299455
-0.302926
0.0661426
-0.368435
0.11277
-0.4403
0.169732
-0.520288
0.235338
-0.612296
0.30219
-0.710074
0.361437
-0.787926
0.415809
-0.843052
0.460936
-0.897985
0.379168
-0.850383
0.0828412
-0.409388
0.0183697
-0.0672452
0.00255975
0.0285
-0.000825299
0.0478853
-0.00130807
0.0523701
-0.00118213
0.0532633
-0.000795165
0.0537399
-0.000658747
0.0532279
0.0528768
-0.00500296
-0.12171
-0.0102914
-0.0881866
-0.0178394
-0.0885149
-0.0241559
-0.0793837
-0.0280832
-0.0859648
-0.029868
-0.0998282
-0.0293373
-0.118332
-0.0285415
-0.139941
-0.0284394
-0.164046
-0.0269248
-0.18944
-0.0159328
-0.222515
0.00876365
-0.270511
0.0436009
-0.337208
0.0886537
-0.409526
0.143545
-0.487226
0.208929
-0.572003
0.282481
-0.670113
0.354812
-0.769823
0.416854
-0.844015
0.472939
-0.900291
0.517027
-0.955068
0.31954
-0.841057
0.0668619
-0.286925
0.0133856
-0.0308049
0.00161611
0.0362308
-0.000746514
0.0496198
-0.0010051
0.0524339
-0.000717722
0.0532382
-0.00051457
0.0529993
0.0523601
-0.0068607
-0.0949959
-0.0142474
-0.0714216
-0.0240212
-0.0727331
-0.0318153
-0.0630301
-0.0381342
-0.0703893
-0.041558
-0.0789899
-0.0419947
-0.0952757
-0.0418471
-0.115795
-0.04252
-0.142024
-0.0427571
-0.168513
-0.0359488
-0.199616
-0.0144337
-0.244588
0.0205872
-0.308019
0.0646369
-0.382118
0.117814
-0.459477
0.180916
-0.540863
0.254833
-0.630646
0.33587
-0.73503
0.412022
-0.833535
0.477277
-0.902068
0.532484
-0.964433
0.571634
-1.00292
0.182708
-0.820575
0.0497965
-0.202119
0.00919809
-0.0029106
0.000943566
0.0420428
-0.000582455
0.050675
-0.000598274
0.0525552
-0.000407667
0.0527062
0.0519273
-0.00864548
-0.0786203
-0.0169679
-0.0622213
-0.028061
-0.0642586
-0.0374329
-0.0561668
-0.0456135
-0.0641696
-0.0505614
-0.0721179
-0.0526295
-0.0859351
-0.0538739
-0.103221
-0.0556215
-0.125873
-0.056984
-0.150495
-0.0543222
-0.178337
-0.0374691
-0.223607
-0.00137889
-0.28356
0.0410188
-0.357719
0.0932468
-0.436395
0.154393
-0.51693
0.225836
-0.601931
0.308582
-0.698152
0.396102
-0.807157
0.474515
-0.900683
0.545268
-0.965046
0.607667
-1.03461
0.597871
-1.02818
0.145755
-0.736918
0.0342779
-0.121381
0.00595193
0.0205465
0.000529222
0.0459575
-0.000345084
0.0513995
-0.000305929
0.0522738
0.0515486
-0.00963176
-0.0678693
-0.0188295
-0.0545444
-0.0311472
-0.0597465
-0.0422742
-0.0540749
-0.0507289
-0.0624296
-0.0570054
-0.0712004
-0.0611196
-0.0862376
-0.0653944
-0.104774
-0.0667961
-0.129335
-0.0694602
-0.15269
-0.0696741
-0.181159
-0.058025
-0.20895
-0.0273171
-0.267901
0.0181808
-0.337289
0.0698956
-0.418806
0.12998
-0.499461
0.199072
-0.582781
0.279575
-0.672141
0.371207
-0.776128
0.463747
-0.885031
0.544319
-0.970111
0.620185
-1.03793
0.683854
-1.10673
0.558056
-0.999173
0.108332
-0.422012
0.0220345
-0.0554478
0.00365178
0.032768
0.000324883
0.0485265
-0.0001456
0.0515584
0.0511486
-0.0110644
-0.0577482
-0.0218874
-0.0480458
-0.0345029
-0.0563975
-0.0464903
-0.0560553
-0.05459
-0.0670491
-0.0617969
-0.0781948
-0.0683918
-0.0935761
-0.0731944
-0.112915
-0.0766842
-0.137723
-0.0792758
-0.163184
-0.0809587
-0.191877
-0.0744172
-0.215155
-0.0493664
-0.262721
-0.0031335
-0.324579
0.0476898
-0.407047
0.107475
-0.488394
0.175188
-0.57167
0.252908
-0.657529
0.343505
-0.752868
0.443499
-0.86179
0.539111
-0.965581
0.623882
-1.04385
0.697511
-1.11673
0.755248
-1.16945
0.343259
-0.957079
0.0738887
-0.269168
0.0135193
-0.0114619
0.00216646
0.0407411
0.000224114
0.0498882
0.0506252
-0.0126936
-0.04805
-0.0257862
-0.0401399
-0.0383467
-0.0506862
-0.0501974
-0.059324
-0.0596584
-0.0787928
-0.0673363
-0.0955775
-0.074685
-0.113627
-0.0811312
-0.130209
-0.0860087
-0.151361
-0.0889271
-0.178845
-0.0894744
-0.203079
-0.0868039
-0.22876
-0.0676628
-0.267015
-0.0277761
-0.321442
0.0265581
-0.399962
0.0863811
-0.482494
0.153619
-0.566227
0.229516
-0.650917
0.317212
-0.740356
0.418182
-0.840864
0.524394
-0.950513
0.621695
-1.04803
0.713361
-1.12387
0.790925
-1.20703
0.806073
-1.20817
0.199995
-0.875286
0.0463867
-0.149005
0.00798705
0.0186187
0.00123359
0.0454854
0.0495917
-0.0163147
-0.0374504
-0.0309274
-0.0290841
-0.0448516
-0.0421016
-0.0560699
-0.0611073
-0.0658241
-0.0911959
-0.0722344
-0.114197
-0.0799953
-0.140346
-0.0876651
-0.152817
-0.0941521
-0.17056
-0.096869
-0.190105
-0.0978496
-0.215386
-0.0971873
-0.242548
-0.0831195
-0.275152
-0.0489719
-0.324521
0.00686685
-0.395259
0.065959
-0.478302
0.133228
-0.561859
0.208536
-0.646598
0.293934
-0.733765
0.392287
-0.826509
0.502049
-0.932253
0.612527
-1.04105
0.713013
-1.13209
0.809223
-1.21016
0.895539
-1.29872
0.742012
-1.14158
0.137591
-0.492832
0.0267317
-0.0602475
0.00437577
0.0331219
0.0470308
-0.019119
-0.0255551
-0.0369494
-0.0160032
-0.0532614
-0.0308889
-0.0651859
-0.0537794
-0.0728565
-0.086537
-0.0789412
-0.113356
-0.084404
-0.14313
-0.0932394
-0.162131
-0.100098
-0.182668