/*--------------------------------*- C++ -*----------------------------------*\
| =========                 |                                                 |
| \\      /  F ield         | OpenFOAM: The Open Source CFD Toolbox           |
|  \\    /   O peration     | Version:  2112                                  |
|   \\  /    A nd           | Website:  www.openfoam.com                      |
|    \\/     M anipulation  |                                                 |
\*---------------------------------------------------------------------------*/
FoamFile
{
    version     2.0;
    format      ascii;
    arch        "LSB;label=32;scalar=64";
    class       volScalarField;
    location    "0.0006";
    object      nut;
}
// * * * * * * * * * * * * * * * * * * * * * * * * * * * * * * * * * * * * * //

dimensions      [0 2 -1 0 0 0 0];

internalField   nonuniform List<scalar> 
13875
(
0.051355
0.0367614
0.0344437
0.0342651
0.0343066
0.0343311
0.0343216
0.0342692
0.034276
0.034301
0.0343281
0.0343148
0.0343051
0.0343196
0.0343288
0.0342929
0.0342757
0.0343051
0.0343107
0.0343096
0.0342698
0.0342456
0.0345137
0.0366618
0.0514092
0.0534438
0.0342332
0.0322989
0.0320705
0.0320888
0.0320869
0.0320471
0.0319983
0.0320221
0.0320365
0.0320546
0.0320365
0.0320314
0.0320507
0.0320692
0.0320404
0.0320369
0.0320619
0.032071
0.0320801
0.0320725
0.0320857
0.0324226
0.0341733
0.0535382
0.0567238
0.0336682
0.031889
0.0315788
0.0315775
0.0315697
0.0315206
0.0314685
0.0314628
0.0314967
0.0315137
0.0315086
0.0315083
0.0315228
0.0315309
0.0314846
0.0314788
0.0314971
0.0315177
0.0315472
0.0315786
0.0316263
0.0320707
0.033651
0.0564385
0.0593789
0.0333385
0.0315807
0.031276
0.0312684
0.0312505
0.0311891
0.0311474
0.0311437
0.0311846
0.0311958
0.0311925
0.0311941
0.0312071
0.0312146
0.0311655
0.0311553
0.0311634
0.0311952
0.0312233
0.0312694
0.0313258
0.0317767
0.0333348
0.0590349
0.0615122
0.0331133
0.0313483
0.0310071
0.0309935
0.0309664
0.0308915
0.0308562
0.0308608
0.0309029
0.0309102
0.0309089
0.0309114
0.0309221
0.0309294
0.0308842
0.0308687
0.0308693
0.0309034
0.0309384
0.031
0.0310609
0.0315587
0.0331161
0.0612442
0.0632823
0.0329881
0.0312066
0.0307977
0.0307624
0.0307197
0.0306334
0.0305996
0.0306081
0.0306498
0.0306559
0.0306572
0.03066
0.0306681
0.0306751
0.0306336
0.0306146
0.0306101
0.0306458
0.0306931
0.0307783
0.0308815
0.0314426
0.033116
0.0632817
0.0653995
0.033272
0.0312565
0.0306923
0.030597
0.0305177
0.0304133
0.030379
0.0303911
0.0304306
0.0304381
0.0304417
0.0304443
0.0304503
0.0304552
0.0304173
0.0303941
0.0303854
0.0304278
0.0305006
0.0306387
0.0308206
0.0316322
0.0335958
0.0656219
0.0679245
0.0343107
0.0316535
0.0307648
0.0305426
0.0304041
0.0302668
0.0302153
0.0302209
0.0302593
0.0302694
0.0302759
0.0302779
0.0302824
0.0302848
0.0302501
0.0302212
0.030217
0.030278
0.0303908
0.0306076
0.0310317
0.0321958
0.0351094
0.0695035
0.0746797
0.0369254
0.0324165
0.0310697
0.0306329
0.0303827
0.0301997
0.0301292
0.0301385
0.0301689
0.0301804
0.0301908
0.0301923
0.030195
0.0301952
0.0301637
0.0301306
0.03013
0.030212
0.0303816
0.0307492
0.0315064
0.0334756
0.0390679
0.0763265
0.0844908
0.0396517
0.0333935
0.0316088
0.0308714
0.030512
0.0302735
0.0301914
0.0302103
0.0302265
0.0302368
0.0302495
0.0302505
0.030251
0.0302493
0.0302251
0.0301912
0.0301919
0.0302896
0.0305341
0.031008
0.0322199
0.0351409
0.0455937
0.0916862
0.0930246
0.0457356
0.0355878
0.0329609
0.0316146
0.0309372
0.0306037
0.0305239
0.0305307
0.0305357
0.0305419
0.0305545
0.030557
0.0305538
0.030549
0.0305339
0.0305074
0.0305186
0.0306209
0.0309748
0.0318303
0.0337999
0.0398954
0.0562461
0.0983502
0.0953068
0.057525
0.0446739
0.0363634
0.0329181
0.0322265
0.0315896
0.0313835
0.0313573
0.0313432
0.031333
0.0313407
0.0313422
0.0313368
0.0313276
0.0313284
0.0313281
0.0313631
0.0316055
0.0322566
0.033254
0.0384076
0.0511679
0.072558
0.0903935
0.0872119
0.0642535
0.0753181
0.0463622
0.040571
0.0351306
0.033661
0.0335521
0.0335056
0.0334943
0.0334864
0.0335159
0.0335265
0.0335014
0.0334477
0.0334443
0.0334608
0.0335303
0.0337495
0.0356424
0.0406668
0.0489635
0.0721791
0.0708542
0.0836616
0.0799481
0.0646514
0.0716531
0.0582605
0.0687233
0.0446709
0.0422771
0.0421921
0.0417678
0.0417806
0.0420219
0.0423224
0.04258
0.0423371
0.0417952
0.0414541
0.0413579
0.0416897
0.0422291
0.0472016
0.0660526
0.0591607
0.0685272
0.0694644
0.0796106
0.0753477
0.0654603
0.0678887
0.0613178
0.0663041
0.0594513
0.0568293
0.0602086
0.0624823
0.0638805
0.0672141
0.0709596
0.0737476
0.0714467
0.0671241
0.0633433
0.0615577
0.0608787
0.0579518
0.060511
0.0654636
0.0604831
0.0652412
0.0677004
0.073548
0.0675577
0.0656052
0.0685108
0.0652923
0.0698912
0.0697527
0.0795991
0.0865873
0.0915374
0.103666
0.120235
0.138815
0.151834
0.142906
0.125448
0.109115
0.0960597
0.0910986
0.0852696
0.0741307
0.0699137
0.0634948
0.0637489
0.0650021
0.066289
0.0646805
0.0660478
0.0707255
0.0701309
0.0765087
0.0782011
0.0866401
0.091041
0.100103
0.120567
0.15493
0.210931
0.266155
0.23489
0.171484
0.131294
0.107516
0.0993655
0.0909826
0.0813162
0.0759958
0.0685059
0.0648751
0.0626895
0.0643529
0.0611885
0.0717255
0.0790999
0.0728512
0.0758566
0.0764944
0.0829462
0.0924214
0.112399
0.148368
0.210586
0.296871
0.356161
0.310364
0.222751
0.157276
0.119453
0.0995102
0.0849869
0.0774101
0.0742969
0.072819
0.0699754
0.0647991
0.060913
0.0559479
0.0775538
0.0822099
0.0759874
0.0742613
0.0743815
0.0800049
0.0918554
0.116731
0.163376
0.245748
0.355521
0.428311
0.379052
0.268657
0.179059
0.126518
0.0977006
0.0812043
0.0744059
0.0721367
0.0729451
0.0714201
0.0689744
0.0572263
0.055613
0.0783331
0.0778088
0.0746929
0.0735615
0.0745829
0.0801313
0.0932695
0.120951
0.174827
0.272034
0.401093
0.482207
0.417958
0.289731
0.186868
0.127774
0.0963994
0.080236
0.073702
0.0707077
0.0702859
0.0686137
0.067835
0.0557432
0.0740906
0.0824537
0.0753351
0.0736505
0.0744108
0.0772183
0.0844146
0.100065
0.131612
0.193419
0.30335
0.444717
0.526657
0.451367
0.312275
0.199906
0.134966
0.100868
0.0834634
0.0756277
0.0712478
0.0690954
0.0676761
0.0759959
0.0707505
0.0964796
0.103805
0.0755094
0.0744597
0.0783785
0.0840474
0.0944475
0.113572
0.150084
0.220193
0.339651
0.485526
0.565565
0.488939
0.345463
0.224434
0.151737
0.113107
0.0927156
0.0819038
0.0750115
0.0698977
0.0688692
0.099175
0.0949678
0.115609
0.128824
0.0819302
0.0810246
0.0870618
0.0969455
0.11258
0.136091
0.178651
0.256992
0.382319
0.525977
0.602184
0.531812
0.390201
0.262529
0.180575
0.135356
0.110075
0.0941726
0.0836627
0.0773229
0.0771374
0.123462
0.118012
0.138454
0.156823
0.0983484
0.097507
0.106015
0.120527
0.141152
0.170027
0.219131
0.306034
0.434813
0.571271
0.63844
0.574462
0.440036
0.310333
0.21967
0.167439
0.137095
0.116448
0.101649
0.0937646
0.0951674
0.15208
0.140545
0.158959
0.193332
0.12784
0.125925
0.137977
0.156644
0.181806
0.216201
0.271207
0.361926
0.489308
0.616025
0.674454
0.618305
0.49314
0.3648
0.270374
0.212148
0.176187
0.150788
0.132108
0.121559
0.12651
0.193464
0.161475
0.181167
0.24262
0.17459
0.169473
0.18604
0.208034
0.236656
0.275793
0.334788
0.425638
0.54635
0.660883
0.71182
0.663505
0.55142
0.4298
0.334969
0.271908
0.230483
0.200964
0.179169
0.164669
0.174627
0.24448
0.185364
0.205317
0.303951
0.243697
0.233955
0.25278
0.277453
0.30796
0.350017
0.411042
0.499221
0.60948
0.709032
0.752393
0.710652
0.611483
0.499938
0.408348
0.343495
0.299006
0.267174
0.243108
0.227234
0.244474
0.311084
0.205808
0.226422
0.382576
0.340477
0.326019
0.337629
0.363764
0.394702
0.436004
0.495156
0.577184
0.675079
0.760812
0.798121
0.762817
0.677905
0.578745
0.49328
0.42988
0.385459
0.352543
0.32708
0.319095
0.341946
0.392284
0.229479
0.249328
0.479312
0.469631
0.45356
0.446211
0.466459
0.497043
0.535379
0.588958
0.661993
0.746416
0.818907
0.850778
0.821542
0.750633
0.665408
0.589095
0.531059
0.489074
0.456501
0.436311
0.447732
0.475256
0.491013
0.252977
0.275629
0.590576
0.631777
0.619536
0.588152
0.590363
0.614248
0.649013
0.694817
0.756549
0.826936
0.886093
0.912097
0.887749
0.828765
0.757232
0.692571
0.64287
0.604919
0.578998
0.579854
0.616438
0.638979
0.597578
0.271476
0.292898
0.702339
0.802782
0.829081
0.772408
0.737771
0.744786
0.771601
0.809496
0.858088
0.914394
0.962219
0.983523
0.96421
0.917022
0.859887
0.808916
0.767567
0.736951
0.725727
0.766013
0.826701
0.808364
0.713045
0.295241
0.309274
0.808308
0.965666
1.06097
1.00171
0.914276
0.89152
0.903277
0.932008
0.969723
1.01204
1.04954
1.06653
1.05161
1.01501
0.972227
0.932787
0.90109
0.88564
0.9037
0.99734
1.06459
0.978467
0.830396
0.314842
0.328796
0.927032
1.1314
1.27558
1.26933
1.12905
1.05714
1.0485
1.06438
1.09194
1.12227
1.14973
1.16265
1.15115
1.12404
1.09338
1.06436
1.04595
1.05197
1.12403
1.26885
1.27276
1.13738
0.934337
0.330231
0.337956
1.00102
1.2732
1.45263
1.54571
1.38792
1.24882
1.20963
1.20804
1.22364
1.24438
1.26316
1.27267
1.26533
1.24707
1.22605
1.20919
1.20823
1.24366
1.38444
1.55247
1.45659
1.2834
1.02403
0.34048
0.344723
1.04757
1.38363
1.60757
1.76396
1.66797
1.46694
1.38637
1.37093
1.37406
1.38429
1.39469
1.39977
1.39589
1.38649
1.37643
1.37264
1.38686
1.46254
1.66968
1.77686
1.61489
1.39709
1.07092
0.346534
0.353024
1.12246
1.49072
1.74974
1.93478
1.92803
1.69685
1.57265
1.54052
1.53407
1.53689
1.54163
1.5443
1.5426
1.53834
1.53503
1.54095
1.57434
1.69873
1.93531
1.93435
1.74719
1.49194
1.11871
0.351522
0.357485
1.19629
1.58464
1.87084
2.07545
2.14429
1.92887
1.76711
1.72182
1.70906
1.7058
1.70687
1.70806
1.70757
1.70659
1.70917
1.72138
1.76761
1.92598
2.14541
2.07541
1.87344
1.59579
1.2138
0.358632
0.358822
1.25977
1.66621
1.97103
2.19181
2.31567
2.14318
1.95774
1.89996
1.88438
1.8794
1.87889
1.87947
1.87946
1.88006
1.88462
1.89987
1.95732
2.13962
2.32158
2.19258
1.97931
1.68373
1.28706
0.360173
0.36208
1.33062
1.74256
2.05617
2.28568
2.45687
2.32916
2.13445
2.06615
2.04878
2.04358
2.04279
2.0431
2.04304
2.04374
2.04853
2.06576
2.13614
2.33424
2.4532
2.28293
2.05628
1.74442
1.32092
0.361074
0.362578
1.33806
1.78025
2.10021
2.33826
2.52436
2.50281
2.30618
2.21289
2.19182
2.18666
2.1864
2.18686
2.18657
2.18664
2.19136
2.21179
2.30453
2.49914
2.5266
2.34154
2.10527
1.78589
1.34145
0.363328
0.364449
1.29656
1.76546
2.09392
2.33786
2.52526
2.57675
2.45588
2.35041
2.31789
2.30696
2.305
2.30525
2.30531
2.30744
2.31847
2.35055
2.45748
2.57749
2.53321
2.34364
2.10175
1.77528
1.3085
0.365448
0.372397
1.25033
1.70641
2.03558
2.28206
2.47026
2.54006
2.50455
2.44978
2.42062
2.40758
2.40669
2.40757
2.40679
2.40792
2.42093
2.45021
2.50485
2.53985
2.46952
2.27898
2.03325
1.7034
1.24936
0.369427
0.380924
1.18428
1.61125
1.92535
2.16645
2.34882
2.41863
2.43024
2.42486
2.42382
2.43301
2.44405
2.4485
2.44376
2.43252
2.42379
2.42406
2.43087
2.41928
2.34936
2.1653
1.92511
1.60938
1.18171
0.381202
0.389012
1.10917
1.48683
1.77213
2.0018
2.17056
2.23392
2.25715
2.28501
2.31422
2.33875
2.3519
2.35743
2.35218
2.33917
2.31391
2.28484
2.25844
2.23571
2.17159
2.00554
1.77507
1.48888
1.11222
0.390724
0.400082
1.04298
1.34492
1.58919
1.79715
1.93838
1.99664
2.02452
2.06738
2.1086
2.1423
2.16424
2.17244
2.16414
2.14186
2.10776
2.06664
2.02407
1.99686
1.93729
1.79826
1.58845
1.34292
1.04293
0.399178
0.398816
0.949065
1.18
1.37987
1.55475
1.64999
1.71348
1.75844
1.81439
1.86419
1.90236
1.92823
1.93783
1.92794
1.90185
1.86361
1.81416
1.75911
1.71455
1.65253
1.55611
1.38018
1.17967
0.95021
0.399469
0.389903
0.839988
1.00708
1.15444
1.2847
1.35401
1.42482
1.48578
1.54898
1.60507
1.64852
1.67841
1.68959
1.67804
1.64807
1.60475
1.54919
1.48693
1.42588
1.35683
1.28767
1.15532
1.008
0.842422
0.391456
0.374815
0.717575
0.850022
0.937697
1.01169
1.07851
1.15083
1.21838
1.28173
1.33964
1.38636
1.41958
1.43232
1.41892
1.38548
1.33877
1.2811
1.21851
1.15093
1.07974
1.01318
0.937165
0.849916
0.716624
0.375079
0.347704
0.537559
0.65541
0.713635
0.762591
0.828426
0.901436
0.969851
1.02964
1.08428
1.13008
1.16423
1.17756
1.1635
1.12934
1.08364
1.02922
0.970116
0.901766
0.829208
0.762962
0.712741
0.653848
0.534348
0.34764
0.276953
0.267782
0.307225
0.354214
0.44754
0.567372
0.670482
0.742285
0.800182
0.850514
0.892441
0.925392
0.93862
0.924642
0.891842
0.850041
0.799871
0.742428
0.670673
0.567693
0.447576
0.353298
0.305031
0.264146
0.276275
0.139767
0.312156
0.337533
0.338721
0.338488
0.338282
0.338163
0.338091
0.33804
0.337997
0.337958
0.337919
0.33788
0.337842
0.337805
0.337768
0.337731
0.337695
0.337659
0.337623
0.337588
0.337553
0.337519
0.337485
0.337451
0.337417
0.337376
0.337039
0.326763
0.158794
0.125883
0.312979
0.335522
0.336067
0.335783
0.335561
0.335443
0.335379
0.335341
0.335313
0.335288
0.335264
0.335242
0.33522
0.335199
0.335178
0.335158
0.335139
0.33512
0.335102
0.335084
0.335067
0.33505
0.335034
0.335018
0.335001
0.334973
0.334485
0.320735
0.152406
0.131731
0.316862
0.334992
0.335204
0.334922
0.3347
0.334597
0.334553
0.334533
0.334524
0.334518
0.334512
0.334507
0.334502
0.334497
0.334492
0.334488
0.334484
0.33448
0.334476
0.334472
0.334469
0.334465
0.334462
0.334458
0.334454
0.334438
0.333918
0.319518
0.150385
0.135535
0.316443
0.334846
0.335048
0.334777
0.334548
0.334449
0.33441
0.334397
0.334393
0.334391
0.33439
0.33439
0.334389
0.334388
0.334388
0.334387
0.334387
0.334386
0.334386
0.334385
0.334385
0.334384
0.334384
0.334383
0.334382
0.334368
0.33383
0.319143
0.148983
0.135418
0.315525
0.334814
0.335021
0.33476
0.334528
0.334431
0.334393
0.33438
0.334378
0.334377
0.334377
0.334377
0.334377
0.334377
0.334377
0.334377
0.334377
0.334376
0.334376
0.334376
0.334376
0.334376
0.334376
0.334376
0.334375
0.334361
0.333805
0.318827
0.147734
0.13513
0.315357
0.334815
0.334999
0.334752
0.334521
0.334426
0.334389
0.334379
0.334376
0.334376
0.334376
0.334376
0.334376
0.334376
0.334376
0.334376
0.334376
0.334376
0.334376
0.334376
0.334376
0.334376
0.334376
0.334376
0.334375
0.33436
0.333785
0.3185
0.146542
0.13523
0.315514
0.334817
0.334962
0.334738
0.334512
0.33442
0.334387
0.334378
0.334376
0.334376
0.334376
0.334376
0.334376
0.334376
0.334376
0.334376
0.334376
0.334376
0.334376
0.334376
0.334376
0.334376
0.334376
0.334376
0.334375
0.334359
0.333764
0.318179
0.145414
0.135723
0.315679
0.334798
0.334902
0.334712
0.334497
0.334416
0.334386
0.334378
0.334376
0.334376
0.334376
0.334376
0.334376
0.334376
0.334376
0.334376
0.334376
0.334376
0.334376
0.334376
0.334376
0.334376
0.334376
0.334376
0.334375
0.334359
0.333747
0.317882
0.144371
0.136205
0.315683
0.334736
0.334844
0.334681
0.334487
0.334412
0.334385
0.334378
0.334376
0.334376
0.334376
0.334376
0.334376
0.334376
0.334376
0.334376
0.334376
0.334376
0.334376
0.334376
0.334376
0.334376
0.334376
0.334376
0.334375
0.334359
0.333731
0.317612
0.143423
0.136526
0.315648
0.33464
0.334802
0.334657
0.334478
0.334409
0.334384
0.334377
0.334376
0.334376
0.334376
0.334376
0.334376
0.334376
0.334376
0.334376
0.334376
0.334376
0.334376
0.334376
0.334376
0.334376
0.334376
0.334376
0.334375
0.334358
0.333716
0.317365
0.142566
0.13665
0.315618
0.334547
0.334769
0.334635
0.334471
0.334406
0.334383
0.334377
0.334376
0.334376
0.334376
0.334376
0.334376
0.334376
0.334376
0.334376
0.334376
0.334376
0.334376
0.334376
0.334376
0.334376
0.334376
0.334376
0.334375
0.334358
0.333701
0.317136
0.14179
0.136624
0.315604
0.334463
0.334737
0.334614
0.334463
0.334404
0.334382
0.334377
0.334376
0.334376
0.334376
0.334376
0.334376
0.334376
0.334376
0.334376
0.334376
0.334376
0.334376
0.334376
0.334376
0.334376
0.334376
0.334376
0.334375
0.334357
0.333688
0.316924
0.141083
0.136583
0.315588
0.334383
0.334704
0.334593
0.334455
0.334401
0.334382
0.334377
0.334376
0.334376
0.334376
0.334376
0.334376
0.334376
0.334376
0.334376
0.334376
0.334376
0.334376
0.334376
0.334376
0.334376
0.334376
0.334376
0.334375
0.334357
0.333676
0.316728
0.140438
0.136496
0.315596
0.334308
0.334673
0.334574
0.334448
0.334399
0.334381
0.334377
0.334376
0.334376
0.334376
0.334376
0.334376
0.334376
0.334376
0.334376
0.334376
0.334376
0.334376
0.334376
0.334376
0.334376
0.334376
0.334376
0.334375
0.334357
0.333664
0.316546
0.139851
0.136503
0.315571
0.334236
0.334642
0.334555
0.334441
0.334396
0.334381
0.334377
0.334376
0.334376
0.334376
0.334376
0.334376
0.334376
0.334376
0.334376
0.334376
0.334376
0.334376
0.334376
0.334376
0.334376
0.334376
0.334376
0.334375
0.334356
0.333653
0.316384
0.139322
0.136424
0.315553
0.334168
0.334613
0.334537
0.334434
0.334394
0.33438
0.334376
0.334376
0.334376
0.334376
0.334376
0.334376
0.334376
0.334376
0.334376
0.334376
0.334376
0.334376
0.334376
0.334376
0.334376
0.334376
0.334376
0.334375
0.334356
0.333644
0.316236
0.138847
0.136386
0.315552
0.334105
0.334584
0.334519
0.334428
0.334392
0.334379
0.334376
0.334376
0.334376
0.334376
0.334376
0.334376
0.334376
0.334376
0.334376
0.334376
0.334376
0.334376
0.334376
0.334376
0.334376
0.334376
0.334376
0.334375
0.334356
0.333635
0.316104
0.138423
0.136381
0.315528
0.334043
0.334556
0.334502
0.334421
0.33439
0.334379
0.334376
0.334376
0.334376
0.334376
0.334376
0.334376
0.334376
0.334376
0.334376
0.334376
0.334376
0.334376
0.334376
0.334376
0.334376
0.334376
0.334376
0.334375
0.334355
0.333628
0.315989
0.13805
0.136338
0.31552
0.333981
0.334527
0.334485
0.334415
0.334388
0.334378
0.334376
0.334376
0.334376
0.334376
0.334376
0.334376
0.334376
0.334376
0.334376
0.334376
0.334376
0.334376
0.334376
0.334376
0.334376
0.334376
0.334376
0.334375
0.334355
0.333621
0.315888
0.137724
0.136341
0.315511
0.333917
0.334495
0.334467
0.334409
0.334386
0.334378
0.334376
0.334376
0.334376
0.334376
0.334376
0.334376
0.334376
0.334376
0.334376
0.334376
0.334376
0.334376
0.334376
0.334376
0.334376
0.334376
0.334376
0.334375
0.334355
0.333616
0.315802
0.137442
0.136356
0.315497
0.333852
0.334459
0.334447
0.334401
0.334384
0.334377
0.334376
0.334376
0.334376
0.334376
0.334376
0.334376
0.334376
0.334376
0.334376
0.334376
0.334376
0.334376
0.334376
0.334376
0.334376
0.334376
0.334376
0.334375
0.334355
0.333611
0.315732
0.137204
0.13637
0.315518
0.333797
0.334423
0.334426
0.334393
0.334381
0.334377
0.334376
0.334376
0.334376
0.334376
0.334376
0.334376
0.334376
0.334376
0.334376
0.334376
0.334376
0.334376
0.334376
0.334376
0.334376
0.334376
0.334376
0.334375
0.334355
0.333607
0.315673
0.137006
0.136432
0.315519
0.333756
0.33439
0.334406
0.334384
0.334378
0.334376
0.334376
0.334376
0.334376
0.334376
0.334376
0.334376
0.334376
0.334376
0.334376
0.334376
0.334376
0.334376
0.334376
0.334376
0.334376
0.334376
0.334376
0.334375
0.334355
0.333604
0.315628
0.136846
0.136499
0.315618
0.333736
0.334362
0.33439
0.334376
0.334376
0.334375
0.334376
0.334376
0.334376
0.334376
0.334376
0.334376
0.334376
0.334376
0.334376
0.334376
0.334376
0.334376
0.334376
0.334376
0.334376
0.334376
0.334376
0.334375
0.334354
0.333602
0.315595
0.136723
0.137
0.317677
0.333839
0.334344
0.334378
0.33437
0.334373
0.334375
0.334376
0.334376
0.334376
0.334376
0.334376
0.334376
0.334376
0.334376
0.334376
0.334376
0.334376
0.334376
0.334376
0.334376
0.334376
0.334376
0.334376
0.334375
0.334354
0.333602
0.315575
0.136632
0.158793
0.326763
0.33704
0.337376
0.337417
0.337451
0.337485
0.337519
0.337554
0.337588
0.337624
0.337659
0.337695
0.337732
0.337768
0.337806
0.337843
0.337881
0.33792
0.337959
0.337999
0.338041
0.338093
0.338165
0.338283
0.33849
0.338722
0.337532
0.312143
0.139729
0.152405
0.320735
0.334485
0.334973
0.335001
0.335018
0.335034
0.33505
0.335067
0.335084
0.335102
0.33512
0.335139
0.335158
0.335178
0.335199
0.33522
0.335242
0.335264
0.335288
0.335313
0.335341
0.335379
0.335443
0.335561
0.335783
0.336067
0.335523
0.312983
0.125901
0.150383
0.319517
0.333918
0.334438
0.334454
0.334458
0.334462
0.334465
0.334469
0.334472
0.334476
0.33448
0.334484
0.334488
0.334492
0.334497
0.334502
0.334507
0.334512
0.334518
0.334524
0.334533
0.334553
0.334597
0.3347
0.334922
0.335203
0.334993
0.316866
0.131698
0.148983
0.319143
0.33383
0.334368
0.334382
0.334383
0.334384
0.334384
0.334385
0.334385
0.334386
0.334386
0.334387
0.334387
0.334388
0.334388
0.334389
0.33439
0.33439
0.334391
0.334393
0.334397
0.33441
0.334449
0.334548
0.334777
0.335048
0.334846
0.316455
0.135584
0.147734
0.318828
0.333805
0.334361
0.334375
0.334376
0.334376
0.334376
0.334376
0.334376
0.334376
0.334376
0.334377
0.334377
0.334377
0.334377
0.334377
0.334377
0.334377
0.334377
0.334378
0.33438
0.334393
0.334431
0.334528
0.33476
0.335021
0.334813
0.315508
0.135438
0.146541
0.318498
0.333784
0.33436
0.334375
0.334376
0.334376
0.334376
0.334376
0.334376
0.334376
0.334376
0.334376
0.334376
0.334376
0.334376
0.334376
0.334376
0.334376
0.334376
0.334376
0.334379
0.334389
0.334426
0.334521
0.334752
0.334999
0.334815
0.315366
0.135061
0.145414
0.318181
0.333764
0.334359
0.334375
0.334376
0.334376
0.334376
0.334376
0.334376
0.334376
0.334376
0.334376
0.334376
0.334376
0.334376
0.334376
0.334376
0.334376
0.334376
0.334376
0.334378
0.334387
0.33442
0.334512
0.334739
0.334963
0.334818
0.315518
0.135321
0.144371
0.317882
0.333747
0.334359
0.334375
0.334376
0.334376
0.334376
0.334376
0.334376
0.334376
0.334376
0.334376
0.334376
0.334376
0.334376
0.334376
0.334376
0.334376
0.334376
0.334376
0.334378
0.334386
0.334416
0.334497
0.334712
0.334902
0.334797
0.315667
0.135674
0.143423
0.317612
0.333731
0.334359
0.334375
0.334376
0.334376
0.334376
0.334376
0.334376
0.334376
0.334376
0.334376
0.334376
0.334376
0.334376
0.334376
0.334376
0.334376
0.334376
0.334376
0.334378
0.334385
0.334412
0.334487
0.334681
0.334844
0.334737
0.315692
0.136211
0.142567
0.317366
0.333716
0.334358
0.334375
0.334376
0.334376
0.334376
0.334376
0.334376
0.334376
0.334376
0.334376
0.334376
0.334376
0.334376
0.334376
0.334376
0.334376
0.334376
0.334376
0.334377
0.334384
0.334409
0.334478
0.334657
0.334802
0.334639
0.315638
0.136547
0.141789
0.317135
0.333701
0.334358
0.334375
0.334376
0.334376
0.334376
0.334376
0.334376
0.334376
0.334376
0.334376
0.334376
0.334376
0.334376
0.334376
0.334376
0.334376
0.334376
0.334376
0.334377
0.334383
0.334406
0.334471
0.334635
0.334769
0.334548
0.315627
0.136601
0.141083
0.316924
0.333688
0.334357
0.334375
0.334376
0.334376
0.334376
0.334376
0.334376
0.334376
0.334376
0.334376
0.334376
0.334376
0.334376
0.334376
0.334376
0.334376
0.334376
0.334376
0.334377
0.334382
0.334404
0.334463
0.334614
0.334737
0.334463
0.315607
0.136663
0.140439
0.316728
0.333676
0.334357
0.334375
0.334376
0.334376
0.334376
0.334376
0.334376
0.334376
0.334376
0.334376
0.334376
0.334376
0.334376
0.334376
0.334376
0.334376
0.334376
0.334376
0.334377
0.334382
0.334401
0.334455
0.334593
0.334705
0.334382
0.315581
0.136577
0.139851
0.316546
0.333664
0.334357
0.334375
0.334376
0.334376
0.334376
0.334376
0.334376
0.334376
0.334376
0.334376
0.334376
0.334376
0.334376
0.334376
0.334376
0.334376
0.334376
0.334376
0.334377
0.334381
0.334399
0.334448
0.334574
0.334673
0.334308
0.315596
0.136491
0.139322
0.316383
0.333653
0.334356
0.334375
0.334376
0.334376
0.334376
0.334376
0.334376
0.334376
0.334376
0.334376
0.334376
0.334376
0.334376
0.334376
0.334376
0.334376
0.334376
0.334376
0.334377
0.334381
0.334396
0.334441
0.334555
0.334642
0.334236
0.315576
0.1365
0.138848
0.316236
0.333644
0.334356
0.334375
0.334376
0.334376
0.334376
0.334376
0.334376
0.334376
0.334376
0.334376
0.334376
0.334376
0.334376
0.334376
0.334376
0.334376
0.334376
0.334376
0.334376
0.33438
0.334394
0.334434
0.334537
0.334613
0.334168
0.315548
0.136438
0.138423
0.316104
0.333635
0.334356
0.334375
0.334376
0.334376
0.334376
0.334376
0.334376
0.334376
0.334376
0.334376
0.334376
0.334376
0.334376
0.334376
0.334376
0.334376
0.334376
0.334376
0.334376
0.334379
0.334392
0.334428
0.334519
0.334584
0.334105
0.315552
0.136374
0.138049
0.315989
0.333628
0.334355
0.334375
0.334376
0.334376
0.334376
0.334376
0.334376
0.334376
0.334376
0.334376
0.334376
0.334376
0.334376
0.334376
0.334376
0.334376
0.334376
0.334376
0.334376
0.334379
0.33439
0.334421
0.334502
0.334556
0.334043
0.315536
0.136378
0.137724
0.315889
0.333621
0.334355
0.334375
0.334376
0.334376
0.334376
0.334376
0.334376
0.334376
0.334376
0.334376
0.334376
0.334376
0.334376
0.334376
0.334376
0.334376
0.334376
0.334376
0.334376
0.334378
0.334388
0.334415
0.334485
0.334527
0.33398
0.315512
0.136355
0.137442
0.315802
0.333616
0.334355
0.334375
0.334376
0.334376
0.334376
0.334376
0.334376
0.334376
0.334376
0.334376
0.334376
0.334376
0.334376
0.334376
0.334376
0.334376
0.334376
0.334376
0.334376
0.334378
0.334386
0.334409
0.334467
0.334495
0.333917
0.315511
0.136327
0.137203
0.315731
0.333611
0.334355
0.334375
0.334376
0.334376
0.334376
0.334376
0.334376
0.334376
0.334376
0.334376
0.334376
0.334376
0.334376
0.334376
0.334376
0.334376
0.334376
0.334376
0.334376
0.334377
0.334384
0.334401
0.334447
0.334459
0.333852
0.315507
0.136354
0.137006
0.315674
0.333607
0.334355
0.334375
0.334376
0.334376
0.334376
0.334376
0.334376
0.334376
0.334376
0.334376
0.334376
0.334376
0.334376
0.334376
0.334376
0.334376
0.334376
0.334376
0.334376
0.334377
0.334381
0.334393
0.334426
0.334423
0.333797
0.315506
0.136387
0.136846
0.315627
0.333604
0.334355
0.334375
0.334376
0.334376
0.334376
0.334376
0.334376
0.334376
0.334376
0.334376
0.334376
0.334376
0.334376
0.334376
0.334376
0.334376
0.334376
0.334376
0.334376
0.334376
0.334378
0.334384
0.334406
0.33439
0.333756
0.315521
0.136418
0.136722
0.315595
0.333602
0.334354
0.334375
0.334376
0.334376
0.334376
0.334376
0.334376
0.334376
0.334376
0.334376
0.334376
0.334376
0.334376
0.334376
0.334376
0.334376
0.334376
0.334376
0.334376
0.334375
0.334376
0.334376
0.33439
0.334362
0.333737
0.315623
0.136499
0.136632
0.315575
0.333602
0.334354
0.334375
0.334376
0.334376
0.334376
0.334376
0.334376
0.334376
0.334376
0.334376
0.334376
0.334376
0.334376
0.334376
0.334376
0.334376
0.334376
0.334376
0.334376
0.334375
0.334373
0.33437
0.334378
0.334344
0.333839
0.317676
0.137002
0.108408
0.108633
0.108859
0.109086
0.109312
0.109538
0.109764
0.10999
0.110217
0.110443
0.110669
0.110896
0.111122
0.111348
0.111575
0.111801
0.112028
0.112254
0.112481
0.112707
0.112934
0.113161
0.113387
0.113614
0.113841
0.114067
0.114294
0.114521
0.114747
0.114974
0.115201
0.115428
0.115655
0.115882
0.116109
0.116336
0.116563
0.11679
0.117017
0.117244
0.117471
0.117698
0.117925
0.118152
0.118379
0.118606
0.118833
0.119061
0.119288
0.119515
0.119743
0.11997
0.120197
0.120424
0.120652
0.120879
0.121107
0.121334
0.121562
0.121789
0.122017
0.122244
0.122472
0.122699
0.122927
0.123154
0.123382
0.12361
0.123837
0.124065
0.124293
0.124521
0.124748
0.124976
0.125204
0.125432
0.125659
0.125887
0.126115
0.126343
0.126571
0.126799
0.127027
0.127255
0.127483
0.127711
0.127939
0.128167
0.128395
0.128623
0.128851
0.129079
0.129307
0.129536
0.129764
0.129992
0.13022
0.130448
0.130677
0.130905
0.131133
0.131362
0.13159
0.131818
0.132047
0.132275
0.132503
0.132732
0.13296
0.133189
0.133417
0.133646
0.133874
0.134103
0.134331
0.13456
0.134788
0.135017
0.135245
0.135474
0.135703
0.135931
0.13616
0.136389
0.136615
0.301292
0.301492
0.301647
0.301798
0.301948
0.302098
0.302246
0.302394
0.302541
0.302688
0.302833
0.302978
0.303123
0.303266
0.303409
0.303551
0.303692
0.303833
0.303973
0.304112
0.304251
0.304389
0.304526
0.304662
0.304798
0.304933
0.305068
0.305201
0.305334
0.305467
0.305599
0.30573
0.30586
0.30599
0.306119
0.306248
0.306376
0.306503
0.306629
0.306755
0.306881
0.307005
0.30713
0.307253
0.307376
0.307498
0.30762
0.307741
0.307861
0.307981
0.3081
0.308219
0.308337
0.308455
0.308572
0.308688
0.308804
0.308919
0.309034
0.309148
0.309261
0.309374
0.309486
0.309598
0.30971
0.30982
0.30993
0.31004
0.310149
0.310258
0.310366
0.310473
0.31058
0.310687
0.310793
0.310898
0.311003
0.311108
0.311211
0.311315
0.311418
0.31152
0.311622
0.311723
0.311824
0.311925
0.312024
0.312124
0.312223
0.312321
0.312419
0.312517
0.312614
0.31271
0.312806
0.312902
0.312997
0.313092
0.313186
0.31328
0.313373
0.313466
0.313559
0.313651
0.313742
0.313833
0.313924
0.314014
0.314104
0.314194
0.314282
0.314371
0.314459
0.314547
0.314634
0.314721
0.314807
0.314893
0.314979
0.315064
0.315149
0.315233
0.315317
0.315403
0.315502
0.332278
0.332303
0.332321
0.332338
0.332355
0.332372
0.332389
0.332405
0.332422
0.332438
0.332454
0.33247
0.332486
0.332501
0.332517
0.332532
0.332547
0.332562
0.332577
0.332592
0.332607
0.332621
0.332636
0.33265
0.332664
0.332678
0.332692
0.332706
0.332719
0.332733
0.332746
0.332759
0.332772
0.332785
0.332798
0.332811
0.332824
0.332836
0.332849
0.332861
0.332873
0.332885
0.332897
0.332909
0.332921
0.332933
0.332944
0.332956
0.332967
0.332978
0.332989
0.333
0.333011
0.333022
0.333033
0.333044
0.333054
0.333065
0.333075
0.333085
0.333096
0.333106
0.333116
0.333126
0.333135
0.333145
0.333155
0.333164
0.333174
0.333183
0.333193
0.333202
0.333211
0.33322
0.333229
0.333238
0.333247
0.333256
0.333265
0.333273
0.333282
0.33329
0.333299
0.333307
0.333315
0.333323
0.333331
0.33334
0.333348
0.333355
0.333363
0.333371
0.333379
0.333386
0.333394
0.333401
0.333409
0.333416
0.333424
0.333431
0.333438
0.333445
0.333452
0.333459
0.333466
0.333473
0.33348
0.333487
0.333494
0.3335
0.333507
0.333513
0.33352
0.333526
0.333533
0.333539
0.333545
0.333552
0.333558
0.333564
0.33357
0.333576
0.333582
0.333588
0.333596
0.334288
0.33429
0.334291
0.334292
0.334293
0.334294
0.334295
0.334296
0.334297
0.334297
0.334298
0.334299
0.3343
0.334301
0.334302
0.334303
0.334304
0.334305
0.334305
0.334306
0.334307
0.334308
0.334309
0.334309
0.33431
0.334311
0.334312
0.334312
0.334313
0.334314
0.334315
0.334315
0.334316
0.334317
0.334317
0.334318
0.334319
0.334319
0.33432
0.334321
0.334321
0.334322
0.334323
0.334323
0.334324
0.334324
0.334325
0.334326
0.334326
0.334327
0.334327
0.334328
0.334328
0.334329
0.334329
0.33433
0.33433
0.334331
0.334331
0.334332
0.334332
0.334333
0.334333
0.334334
0.334334
0.334335
0.334335
0.334336
0.334336
0.334337
0.334337
0.334337
0.334338
0.334338
0.334339
0.334339
0.334339
0.33434
0.33434
0.334341
0.334341
0.334341
0.334342
0.334342
0.334343
0.334343
0.334343
0.334344
0.334344
0.334344
0.334345
0.334345
0.334345
0.334346
0.334346
0.334346
0.334347
0.334347
0.334347
0.334348
0.334348
0.334348
0.334348
0.334349
0.334349
0.334349
0.33435
0.33435
0.33435
0.33435
0.334351
0.334351
0.334351
0.334351
0.334352
0.334352
0.334352
0.334352
0.334353
0.334353