/*--------------------------------*- C++ -*----------------------------------*\
| =========                 |                                                 |
| \\      /  F ield         | OpenFOAM: The Open Source CFD Toolbox           |
|  \\    /   O peration     | Version:  2112                                  |
|   \\  /    A nd           | Website:  www.openfoam.com                      |
|    \\/     M anipulation  |                                                 |
\*---------------------------------------------------------------------------*/
FoamFile
{
    version     2.0;
    format      ascii;
    arch        "LSB;label=32;scalar=64";
    class       volScalarField;
    location    "0.01084";
    object      T;
}
// * * * * * * * * * * * * * * * * * * * * * * * * * * * * * * * * * * * * * //

dimensions      [0 0 0 1 0 0 0];

internalField   nonuniform List<scalar> 
13875
(
1412
1535.59
1482.41
1487.78
1481.93
1483.93
1484.16
1483.76
1484.67
1484.41
1483.97
1484.16
1483.61
1483.93
1483.84
1483.86
1483.43
1484.72
1484.87
1483.12
1481.88
1487.68
1480.53
1532.45
1397.11
1307.02
1356.17
1318.9
1322.23
1316.54
1318.2
1322.02
1323.08
1323.77
1323.34
1323.06
1323.14
1318.16
1317.69
1318.36
1322.76
1322.95
1323.48
1322.32
1317.82
1316.7
1321.91
1319.6
1356.08
1304.26
1307.23
1340.07
1314.27
1311.86
1305.3
1305.93
1305.78
1306.01
1306.39
1305.4
1304.81
1305.97
1303.86
1304.05
1303.9
1305.77
1303.89
1305.94
1306.03
1305.08
1304.86
1311.07
1311.36
1336.47
1298.17
1317.38
1344.82
1314.66
1308.77
1306.05
1306.27
1304.67
1304.32
1304.01
1303.21
1302.79
1303.48
1303.94
1304.1
1304.05
1303.45
1302.42
1303.5
1304.21
1305.48
1305.35
1307.69
1313.96
1343.83
1311.57
1329.53
1342.12
1315.7
1312.5
1305.05
1305.92
1305.5
1304.36
1304.29
1303.27
1302.86
1303.38
1303.83
1304.24
1303.83
1303.29
1302.52
1304
1305.2
1304.87
1304.75
1311.76
1312
1338.26
1315.62
1332.21
1351.13
1318.81
1309.95
1308.04
1307.13
1304.94
1304.44
1304.12
1303.4
1302.97
1303.6
1304.15
1304.51
1304.3
1303.56
1302.63
1303.55
1304.27
1306.56
1307.27
1308.43
1319.03
1348.95
1325.97
1338.98
1360.45
1329
1317.51
1308.06
1307.56
1306.67
1305.02
1304.52
1303.88
1303.42
1303.73
1304.31
1304.84
1304.23
1303.58
1303.17
1304.59
1306.19
1306.49
1307.79
1317.61
1325.71
1358.11
1321.52
1359.71
1384.67
1344.01
1321.15
1316.7
1310.82
1306.81
1305.67
1305.02
1304.49
1304.05
1304.33
1305.06
1305.51
1305.22
1304.18
1303.75
1304.95
1306.17
1309.98
1315.3
1320.38
1341.51
1380.91
1350.61
1537.18
1508.36
1387.09
1350.36
1322
1315.97
1311.18
1307.34
1306.88
1306.03
1305.64
1305.36
1306.21
1306.85
1306.31
1305.64
1305.62
1307.27
1310.55
1314.21
1321.31
1349.21
1382.72
1505.68
1521.95
1834.86
1574.34
1427
1358.52
1338.61
1321.22
1313.78
1310.72
1310.05
1308.89
1308.36
1308
1308.81
1309.52
1309.18
1308.57
1308.83
1310.93
1314.07
1320.57
1337.06
1357.17
1424.84
1566.56
1826.88
2507.14
1804.2
1517.34
1406.78
1350.16
1331.82
1325.77
1317.73
1316.52
1314.81
1313.87
1313.29
1313.92
1314.82
1314.7
1314.6
1315.13
1317.7
1326.12
1330.02
1348.69
1419.43
1502.15
1797.84
2429.01
2812.18
2301.01
1735.07
1462.92
1425.93
1361.72
1339.95
1331.4
1329.24
1326.74
1325.54
1324.89
1325.24
1326.13
1326.28
1326.88
1328.18
1331.78
1339.73
1371.47
1405.45
1457.26
1731.3
2306.17
2837.23
2786.38
2654.88
2350.91
2205.29
1524.45
1414.94
1396.05
1372.63
1364.14
1357.35
1354.25
1353.06
1352.92
1353.74
1354.59
1357.5
1363.59
1374.92
1399.57
1421.74
1567.36
2234.53
2245.65
2687.19
2766.53
2722.63
2660.63
2743.69
2786.96
2051.65
1832.15
1520.84
1475.99
1459.31
1447.3
1442.79
1441.27
1441
1441.85
1443.08
1447.53
1458.62
1478.81
1541.76
1922.97
2101.11
2803.48
2792.58
2703.04
2701.63
2581.92
2638.52
2685.82
2687.65
2590.81
2365.58
2019.54
1964.7
1866.05
1766.61
1731.33
1720.14
1716.48
1718.17
1724.76
1748.57
1839.73
1961.49
1984.04
2421.02
2637.31
2735.63
2678.64
2652.3
2625.88
2499.78
2536.06
2628.78
2684.28
2657.27
2685.85
2868.18
2942.14
2937.04
3034.68
3114.7
3137.03
3146.92
3140.9
3123.97
3056.76
2904.4
2938.42
2899.83
2717.45
2661.07
2706.69
2624.38
2557.86
2533.25
2313.56
2398.25
2479.43
2529.85
2603.31
2728.23
3029.78
3408.64
3592.88
3683.81
3698.12
3691.72
3689.22
3692.41
3701.48
3702.28
3598.4
3417.95
3054.55
2739.67
2615.76
2564.79
2470.11
2404.6
2328.97
2024.32
2146.74
2303.21
2616.2
2789.91
2830.37
2959.04
3311.94
3529.13
3642.9
3672.8
3672.59
3672.18
3674.23
3675.43
3646.83
3501.36
3290.8
2962.86
2839.58
2806.96
2565.09
2269.92
2139.44
2024.03
1813.19
1879.52
2010.62
2242.23
2718.08
2839.51
2879.38
3105.88
3357.99
3499.5
3544.06
3555.44
3560.02
3559.42
3549.7
3510.53
3360.78
3119.6
2918.56
2924.85
2677.27
2204.13
2007.18
1885.21
1814.68
2462.12
2348.84
2106.38
2195.63
2508.29
2690.06
2699.53
2842.94
3080.84
3278.67
3388.06
3431.87
3440.71
3434.35
3391
3277.77
3067.96
2851.58
2730.12
2714.99
2484.06
2223.29
2141.05
2348.96
2453.54
3250.71
3424.67
2750.13
2299.6
2377.2
2533.01
2549.8
2660.77
2885.75
3110.62
3251.43
3305.03
3315.89
3304.1
3245.18
3091.2
2855.81
2656.93
2559.6
2541.62
2358.9
2325.54
2811.91
3482.84
3257.26
3627.97
3572.32
2811.27
2209.24
2214.41
2369.92
2418.6
2524.22
2737.93
2963.73
3118.79
3181.54
3190.42
3176.47
3102.08
2931.41
2700.99
2521.4
2418.24
2369.84
2190.54
2248.31
2899.61
3619.57
3674.97
3496.82
3118.29
2488.36
2055.88
2063.11
2236.91
2310.14
2415.3
2608.69
2832.74
2988.86
3053.04
3066.46
3047.46
2973.87
2805.75
2583.17
2415.93
2299.21
2235.05
2036.56
2055.49
2476.6
3127.36
3530.41
3510.09
2959.08
2248.84
1904.14
1976.83
2138.84
2206.9
2316.57
2504.93
2715.61
2868.36
2934.96
2945.95
2929.57
2853.26
2689.23
2477.03
2318.95
2202.29
2131.22
1943.46
1893.97
2255.7
2981.65
3544.53
3447.23
2787.6
2096.74
1822.47
1929.97
2066.93
2118.2
2230.49
2408.9
2614.73
2757.1
2817.58
2831.76
2810.65
2739.7
2585.85
2383.09
2227.35
2118.43
2064.22
1897.06
1810.06
2113.37
2835.81
3481.29
3425.44
2751.59
2040.96
1827.22
1904.39
1999.87
2039.96
2149.24
2324.09
2512.34
2650.77
2711.74
2721.93
2707.02
2637.49
2490.1
2297.92
2149.91
2044.69
2002.19
1878.23
1818.37
2039.71
2763.28
3453.67
3340.38
2602.75
1966.92
1829.86
1880.57
1954.24
1975.36
2085.64
2248.8
2430.38
2552.66
2605.55
2620.03
2600.21
2539.27
2408.33
2228.07
2079.83
1978.15
1961.66
1859.89
1824.23
1972.15
2618.27
3369.1
3306.76
2557.77
1970.22
1862.9
1871.57
1906.66
1915.4
2024.86
2185.68
2348.56
2461.94
2513.61
2522.48
2509.61
2449.25
2324.24
2156.2
2020.08
1918.22
1915.15
1854.81
1851.19
1974.96
2610.13
3363.9
3307.03
2539.73
1942.01
1853.9
1840.46
1875.38
1867.98
1976.61
2120.89
2275.96
2374.23
2419.06
2433.43
2415.52
2366.28
2262.74
2106.99
1971.15
1871.5
1884.05
1833.14
1852.46
1936.68
2517.47
3285.62
3268.36
2539.43
1972.99
1886.81
1840.66
1851.14
1826.57
1930.6
2071.95
2207.73
2297.84
2341.05
2348.08
2337.94
2287.48
2189
2048.06
1927.39
1827.26
1869.05
1829.7
1875.31
1961.14
2523.5
3267.08
3189.22
2461.18
1945.79
1884.56
1802.13
1826.63
1794.38
1903.98
2024.01
2151.46
2224.46
2258.52
2270.7
2254.54
2215.6
2136.17
2006.34
1890.51
1793.97
1836.06
1804.89
1874.35
1938.12
2463.28
3201.26
3153.2
2459.33
1995.86
1912.66
1810.76
1805.51
1770.12
1865.2
1980.53
2089.78
2157.61
2192.47
2196.98
2191.65
2150.85
2076.49
1962.61
1866.64
1768.46
1822.22
1806.49
1890.96
1967.74
2410.63
3141.19
3083.62
2398.68
1992.97
1895.46
1783.17
1774.69
1743.21
1848.07
1942.73
2044.73
2097.19
2121.03
2131.4
2117.77
2090.08
2033.92
1928.48
1836.73
1742.46
1782.89
1789.65
1886.62
1965.01
2391.81
3118.77
3051.05
2371.49
2024.47
1912.77
1803.61
1760.72
1730.86
1824.28
1907.89
1993.16
2039.78
2067.6
2068.84
2066.97
2033.47
1979.84
1889.81
1820.72
1723.68
1771.66
1795.54
1899.56
2022.24
2387.34
3073.7
3014.46
2338.59
2019.27
1910.93
1788.3
1732.35
1701.38
1807.9
1874.09
1952.99
1988.6
2004.94
2014.15
2002.74
1984.35
1948.06
1861.85
1802.05
1698.07
1738.68
1794.81
1901.7
2006.53
2329.42
3018.61
2998.59
2334.31
2021.78
1924.55
1803.42
1735.02
1694.38
1787.99
1846.96
1908.4
1939.58
1962.35
1961.3
1961.5
1933.19
1896.69
1831.69
1789.75
1683.48
1732.16
1807.38
1920.24
2024.73
2331.52
2990.91
2951.41
2289.85
2010.06
1936.86
1791.03
1717.6
1669.14
1775.52
1818.07
1877.59
1898.03
1908.16
1915.66
1905.56
1893.55
1872.95
1800.9
1769.14
1661.82
1719.41
1790.88
1935.91
2003.88
2293.45
2932.06
2940.93
2298.62
2015.37
1982.53
1819.07
1734.58
1673.73
1758.07
1791.86
1835.32
1854.88
1873.88
1871.02
1873.56
1849.55
1826.25
1779.41
1763.82
1659.54
1723.11
1814.62
1970.97
1997.13
2275.84
2925.26
2905.05
2274.33
1995.58
1993.58
1811
1716.14
1653.31
1746.34
1763.98
1810.73
1821.71
1826.83
1832.86
1825.61
1818.07
1807.8
1744.08
1739.7
1649.97
1716.08
1808.71
1995.54
1980.17
2274.99
2933.98
2856.83
2266.14
1978.26
1991.77
1841.58
1746.16
1673.94
1739.6
1744.86
1772.75
1783.97
1799.81
1795.79
1800.01
1778.63
1764.5
1728.27
1737.5
1654.96
1732.51
1841.72
1987.69
1964.86
2295.83
2905.86
2829.43
2258.09
1949.05
1987.77
1894.27
1738.28
1666.55
1727.97
1717.11
1752.54
1756.68
1759.11
1763.4
1758.17
1754.78
1753.52
1694.07
1719.07
1668.47
1726.3
1868.89
1987.75
1948.08
2250.96
2865.53
2793.03
2252.04
1936.75
1973.51
1926.61
1767.15
1701.32
1731.53
1706.48
1719.72
1723.99
1737.35
1732.12
1737.67
1718.61
1716.05
1689.77
1724.65
1688.44
1762.62
1941.07
1979.73
1927.92
2235.98
2804.57
2761.93
2231.62
1914.05
1956.41
1929.48
1783.92
1707.26
1732.37
1684.74
1707.73
1702.92
1701.99
1704.64
1700.91
1700.64
1709.95
1658.22
1713.81
1700.73
1772.7
1935.9
1964.44
1913.4
2222.67
2773.14
2727.62
2229.84
1914.01
1929.35
1920.02
1842.6
1748.29
1748.95
1689.21
1680.28
1674.59
1684.85
1678.3
1685.32
1668.37
1681.85
1672.23
1734.05
1727.94
1825
1928.3
1942.46
1907.37
2204.43
2722.23
2706.55
2215.73
1902.59
1900.08
1901.15
1901.63
1754.07
1746.41
1676.58
1681.06
1661.28
1654.05
1654.69
1653.78
1658.67
1683.82
1651.64
1728.02
1754.38
1900.91
1920.52
1916.87
1897.58
2210.45
2690.33
2669.04
2195.48
1899.68
1883.73
1876.97
1893.77
1826.63
1776.14
1703.76
1667.17
1640.91
1643.21
1633.19
1643.4
1630
1664.27
1682.46
1758.01
1807.55
1895.3
1895.51
1893.47
1906.34
2219.43
2668.28
2652.65
2194.94
1896.21
1866.39
1849.52
1878.23
1909.19
1792.96
1687.37
1680.91
1644.24
1622.8
1616.32
1620.2
1642.25
1682
1661.72
1771.43
1882.44
1878.26
1869.04
1875.86
1909.27
2204.87
2648.38
2606.21
2175.17
1889
1847.12
1825.46
1857.62
1892.61
1849.16
1730.09
1674.33
1633.46
1627.7
1608.41
1627.5
1618.91
1672.98
1713.37
1825.38
1897.22
1869.35
1844.89
1869.85
1908.29
2180.8
2610.94
2565.22
2157.56
1876.02
1844.93
1809.55
1828.55
1882.72
1942.74
1736.01
1698.39
1647.77
1617.16
1608.21
1612.6
1646.05
1697.5
1710.83
1917.08
1881.04
1828.44
1822.43
1856.75
1881.35
2159.89
2578.61
2399.3
2104.78
1855.76
1826.37
1788.05
1797.31
1855.98
1919.77
1818.14
1709.42
1641.36
1630.77
1610.73
1630.24
1623.42
1704.66
1794.24
1927.39
1861.57
1806.73
1804.32
1841.15
1859.27
2103.95
2417.88
1074.63
1007.03
944.92
875.122
805.862
739.91
684.049
637.569
599.332
567.927
542.165
520.833
504.217
490.764
480.173
471.79
464.949
458.889
453.176
447.993
443.346
438.79
434.327
430.26
426.641
423.528
420.107
416.207
411.916
408.389
1075.32
1007.7
948.039
883.189
819.505
758.98
707.427
663.248
625.463
592.977
564.702
540.273
520.056
502.774
488.981
478.291
470.11
463.134
456.897
451.432
446.406
441.692
437.329
433.302
429.76
426.523
422.844
419.274
415.437
412.839
1076.1
1012.61
956.653
895.188
834.306
775.896
725.243
681.489
643.323
609.82
579.913
553.77
531.318
511.579
495.484
482.69
472.791
465.008
458.307
452.64
447.432
442.634
438.316
434.474
430.685
426.923
423.451
420.187
416.537
414.576
1084.3
1021.8
969.577
912.28
855.118
800.355
751.978
708.737
670.591
636.144
604.333
575.806
550.229
527.281
508.191
492.352
479.765
469.949
462.142
456.095
450.408
445.526
441.339
437.034
433.059
429.155
425.839
422.732
419.367
417.132
1090.45
1032.9
984.817
931.777
878.356
826.744
779.809
736.995
698.522
662.967
629.591
599.102
570.833
544.804
522.522
503.315
487.583
475.164
465.681
458.614
452.6
447.425
442.729
438.369
434.19
430.306
426.95
423.955
420.709
418.248
1097.87
1043.73
999.852
951.154
902.204
854.146
809.013
767.248
729.019
692.782
658.528
626.386
595.605
566.6
540.926
518.037
498.758
483.001
471.074
462.412
455.849
450.475
445.598
441.045
436.631
432.651
429.417
426.546
423.581
421.233
1104.02
1055.13
1015.18
971.187
927.079
882.403
839.273
798.853
760.938
724.588
689.403
655.598
622.321
590.528
561.501
534.943
511.782
492.315
477.212
466.154
458.44
452.283
447.099
442.342
437.821
433.76
430.498
427.643
425.083
423.177
1110.94
1066.73
1030.93
991.999
952.648
911.487
870.626
831.71
794.65
758.371
722.37
687.163
651.393
617.113
584.87
554.801
527.919
504.947
486.223
472.242
462.377
455.1
449.488
444.561
439.969
435.805
432.477
429.763
427.565
426.162
1116.58
1078.51
1047.25
1013.52
978.741
941.35
903.006
865.823
829.852
793.428
756.777
720.054
682.136
645.364
610.252
577.149
547.058
520.538
498.133
480.308
466.962
457.846
451.392
446.136
441.27
436.996
433.447
430.763
428.658
427.656
1123.8
1090.32
1063.97
1035.33
1005.05
971.566
936.125
900.728
865.771
829.424
792.353
754.104
714.547
675.877
638.611
603.244
570.154
539.967
513.78
491.979
474.56
462.249
454.213
448.539
443.61
439.197
435.539
432.675
430.829
430.38
1129.68
1101.9
1080.53
1057.01
1031.38
1001.73
969.472
936.048
902.228
865.961
828.721
789.433
748.756
708.74
669.862
632.426
596.067
562.36
532.36
506.404
485.001
468.401
457.326
450.342
445.077
440.538
436.534
433.771
431.948
431.257
1135.77
1113.11
1096.59
1078.26
1057.37
1031.56
1002.65
971.378
938.673
902.831
865.714
825.505
784.946
744.169
703.597
663.936
624.669
587.777
554.056
523.838
498.433
477.861
462.902
453.359
447.233
442.407
438.227
435.366
433.8
433.167
1140.52
1123.55
1112.24
1098.88
1082.78
1060.9
1035.34
1006.2
974.616
939.74
902.38
862.832
822.575
781.363
738.987
697.395
655.693
615.755
578.301
543.84
513.716
488.859
470.019
457.235
449.401
443.938
439.45
436.375
434.946
434.569
1145.18
1133.51
1127.23
1118.74
1107.49
1089.75
1067.25
1040.16
1009.56
975.989
939.063
900.765
860.837
819.527
776.168
732.395
688.77
646.133
605.223
566.654
531.931
502.172
478.646
462.189
452.156
446.167
441.316
438.033
436.73
436.51
1148.51
1142.92
1141.25
1137.61
1131.09
1117.68
1098.15
1073.33
1044.35
1012.11
975.83
938.538
899.457
858.186
814.54
768.638
723.549
678.61
634.514
592.123
553.059
518.517
489.989
468.728
455.022
447.291
442.313
439.036
437.576
437.338
1152.19
1152
1154.54
1155.35
1153.31
1144.25
1127.88
1105.57
1078.38
1047.08
1012.28
976.081
937.958
897.025
853.571
806.166
759.791
713.031
666.147
620.3
577.163
538
504.423
478.007
459.697
449.25
443.694
440.293
438.733
438.517
1155.2
1160.06
1166.55
1171.98
1174
1169.12
1156.15
1136.36
1111.17
1080.91
1047.81
1013.09
975.679
935.528
892.493
844.778
796.926
748.891
699.655
650.679
603.633
559.989
521.379
489.529
465.968
451.619
444.761
441.066
439.368
439.294
1157.58
1167.55
1178.34
1187.89
1193.15
1192.21
1182.72
1165.63
1142.36
1113.66
1082.36
1048.99
1012.25
973.366
930.949
883.913
834.812
785.843
734.824
683.254
632.705
584.741
541.134
503.747
474.698
455.76
446.491
442.098
440.261
440.306
1158.75
1174.33
1189
1202
1211.04
1213.44
1207.46
1193.22
1171.81
1145.05
1115.61
1083.66
1047.85
1009.54
968.656
922.569
873.245
823.25
771.05
717.49
663.963
612.102
563.731
520.893
486.067
461.719
448.772
442.871
440.648
440.569
1160.3
1180.57
1199.02
1215.7
1227.78
1232.87
1230.25
1218.81
1199.56
1174.97
1147.41
1116.82
1081.9
1045.13
1004.59
960.104
911.769
860.642
807.672
752.655
696.67
641.438
588.865
541.228
501.016
470.987
452.886
444.429
441.387
440.827
1160.89
1186.66
1208.34
1228.25
1243.07
1250.6
1251.12
1242.46
1225.49
1203.19
1177.51
1148.25
1114.52
1079.11
1039.91
996.066
949.401
897.899
844.108
788.102
730.225
672.314
616.309
564.568
519.488
483.471
458.775
446.685
441.966
441.123
1160.54
1192.5
1217.34
1240.05
1257.05
1266.89
1270.03
1264.08
1249.61
1229.68
1205.87
1177.95
1145.65
1111.5
1073.76
1030.86
985.343
934.865
879.937
823.326
764.146
704.208
645.367
589.876
540.086
498.427
467.325
450.433
443.6
442.258
1162.12
1198.3
1226.71
1251.32
1269.96
1281.66
1287.04
1283.76
1271.94
1254.45
1232.54
1205.97
1175.25
1142.33
1106
1064.7
1019.41
970.597
915.208
857.922
797.972
736.53
675.327
616.392
562.008
514.662
477.361
454.747
445.172
442.907
1140.48
1207.42
1237.8
1263
1282.12
1294.85
1302.26
1301.45
1292.56
1277.6
1257.61
1232.4
1203.37
1171.71
1136.65
1096.68
1052.53
1004.47
950.028
891.705
831.478
769.02
705.953
643.993
585.329
532.584
489.418
460.384
446.877
442.998
1171.69
1246.09
1260.72
1277.78
1294.49
1307.82
1316.12
1317.62
1311.41
1298.92
1281.06
1257.4
1230.05
1199.67
1165.79
1127.08
1083.96
1036.66
983.471
924.747
864.347
801.3
736.794
672.366
610.218
553.085
504.628
468.44
449.605
443.659
407.398
411.018
415.502
419.104
422.669
426.209
429.726
433.637
438.045
442.272
446.749
452.003
457.644
463.834
470.574
478.965
489.453
502.885
519.673
541.092
567.238
598.801
637.301
683.823
739.492
805.566
874.947
944.764
1006.75
1075.07
412.345
415.183
419.002
422.432
426.068
429.633
433.235
437.269
441.561
445.921
450.734
456.149
462.09
469.547
477.697
488.449
502.169
519.501
539.948
564.474
593.069
625.644
663.497
707.486
758.642
818.88
882.543
947.601
1007.16
1075.18
413.881
416.334
419.728
423.143
426.656
430.474
434.315
438.514
442.773
447.294
452.094
457.53
464.046
472.267
482.2
495.127
511.296
531.11
553.756
579.944
610.05
643.659
681.691
725.249
775.577
833.52
894.351
956.029
1011.63
1075.56
416.822
419.282
422.325
425.607
428.902
432.788
436.877
441.345
445.748
450.545
455.671
461.22
468.959
479.082
491.847
507.822
527.033
550.02
575.802
604.347
636.315
670.968
708.977
751.859
799.773
854.079
911.282
968.587
1020.69
1083.59
418.067
420.606
423.578
426.797
429.999
433.815
437.987
442.587
447.416
452.423
458.129
464.629
473.738
486.257
502.192
521.505
543.946
570.036
598.662
629.218
662.615
698.383
736.746
779.17
825.575
876.906
930.635
983.515
1031.51
1090.14
420.842
423.24
426.091
429.192
432.272
436.086
440.378
445.111
450.075
455.333
461.814
469.819
481.1
496.666
515.942
538.725
564.494
593.517
624.752
657.098
691.462
727.92
766.132
807.571
852.103
900.116
949.787
998.435
1042.04
1097.01
422.437
424.525
427.257
430.347
433.397
437.194
441.559
446.423
451.608
457.188
464.612
474.899
489.373
508.087
530.874
557.173
586.246
618.085
651.889
686.131
721.697
758.542
796.405
836.712
879.448
924.196
969.479
1013.64
1053.26
1103.37
426.083
427.016
429.316
432.292
435.407
439.309
443.672
448.598
453.938
460.306
469.46
482.446
500.006
521.986
548.124
577.727
609.932
644.284
680.659
716.685
753.427
790.515
827.853
866.801
907.491
948.944
989.755
1029.11
1064.83
1110.61
428.125
428.532
430.422
433.223
436.559
440.785
445.183
450.244
456.023
463.976
475.8
492.325
513.5
539.02
568.196
600.676
635.581
672.19
710.828
748.533
786.121
823.714
860.275
897.754
936.165
974.13
1010.6
1044.99
1076.42
1116.07
429.889
430.007
431.862
434.946
438.725
442.955
447.5
452.84
459.632
469.794
485.118
505.503
530.463
559.653
592.032
626.843
664.033
702.709
742.966
782.124
820.24
857.776
893.576
929.556
965.428
999.722
1031.85
1061.31
1088.18
1123.1
431.038
431.384
433.059
435.9
439.829
444.314
449.115
455.06
463.923
477.723
497.428
521.783
550.545
583.304
619.127
656.42
695.296
735.683
777.065
817.218
855.543
893.183
927.665
961.824
994.919
1025.39
1053.1
1077.65
1099.75
1129.22
432.464
433.263
434.547
437.391
441.602
446.213
451.37
458.815
471.063
489.385
513.087
541.552
574.062
610.119
649.081
688.839
729.503
771.106
812.575
853.684
891.923
929.075
962.276
994.251
1024.26
1050.82
1074.05
1093.63
1110.97
1135.44
434.1
434.497
435.704
438.579
442.983
447.785
454.011
464.477
481.111
503.715
531.667
564.429
600.732
639.981
681.674
723.551
766.197
808.47
849.809
890.536
928.992
965.05
997.106
1026.66
1053.23
1075.82
1094.56
1109.16
1121.73
1140.43
435.837
436.016
437.228
440.286
444.843
450.049
458.285
472.524
493.421
520.666
553.325
590.389
630.409
672.576
716.465
760.416
804.565
846.902
887.998
927.599
965.523
1000.2
1031.47
1058.67
1081.7
1100.42
1114.47
1124.32
1131.69
1145.64
436.547
436.595
437.902
441.184
445.893
452.34
463.683
482.27
508.214
540.592
578.14
619.434
662.915
707.63
753.051
799.188
843.95
886.031
926.373
964.626
1001.97
1035.25
1065.06
1090
1109.6
1124.47
1133.47
1138.52
1141.56
1149.2
437.305
437.337
438.882
442.399
447.186
455.872
471.465
495.244
526.499
564.112
606.305
651.488
698.008
744.76
791.257
839.111
883.851
925.343
964.64
1001.81
1037.57
1069.68
1097.76
1120.22
1136.73
1147.29
1151.47
1151.93
1150.49
1153.07
438.087
438.128
439.701
443.318
449.068
461.011
481.851
511.432
548.296
590.959
637.438
686.04
735.075
783.259
830.682
879.388
923.59
964.038
1002.4
1038.06
1072.03
1103.1
1129.1
1149.07
1162.43
1168.68
1168.3
1164.32
1158.91
1156.43
439.086
439.168
440.867
444.873
452.601
468.795
495.515
531.047
573.459
620.869
671.193
722.631
773.553
822.55
871.041
919.323
962.631
1001.63
1039.14
1073.31
1105.41
1135.02
1158.95
1176.34
1186.36
1188.45
1184.51
1176.37
1166.62
1158.88
439.463
439.606
441.681
446.794
457.923
479.675
512.399
553.819
601.497
653.187
706.794
760.454
812.651
862.209
911.377
958.382
1000.32
1038.17
1074.43
1107.18
1137.39
1165.12
1187.21
1201.86
1208.41
1206.82
1199.15
1187.21
1173.61
1160.25
439.885
440.257
443.055
450.386
466.3
494.235
532.867
579.719
632.016
687.298
743.506
798.742
851.642
901.964
950.619
995.718
1036.62
1073.24
1108.25
1139.6
1167.86
1193.38
1213.58
1225.47
1228.58
1224.15
1213.3
1197.38
1179.92
1162.05
440.392
440.91
444.885
455.601
477.968
512.327
556.487
607.965
664.056
722.229
780.451
836.732
890.094
941.139
988.09
1031.9
1071.68
1106.63
1140.33
1170.41
1196.75
1219.89
1237.85
1247.1
1246.98
1240.23
1226.24
1206.81
1185.95
1162.98
441.406
442.448
448.236
463.225
492.382
532.948
582.292
637.869
697.085
757.476
817.116
873.944
927.992
978.751
1023.75
1066.92
1104.92
1138.49
1170.74
1199.54
1223.97
1244.64
1260.06
1266.72
1263.96
1254.45
1238.39
1215.81
1191.73
1162.8
441.859
443.764
452.02
472.327
508.208
554.838
609.188
668.599
730.468
792.521
853.035
910.098
965.06
1014.06
1058.73
1100.14
1136.48
1168.83
1199.47
1226.97
1249.48
1267.71
1280.27
1284.41
1279.56
1268.31
1250.05
1225.24
1197.78
1164.28
442.028
445.073
456.739
483.343
525.531
577.919
636.985
699.764
763.757
826.98
887.882
945.421
1000.25
1047.86
1091.59
1131.63
1166.53
1197.67
1226.6
1252.8
1273.35
1289.01
1298.59
1300.34
1293.87
1281.22
1262.02
1236.81
1207.57
1143.09
442.69
447.442
463.738
497.681
545.632
602.921
665.763
731.2
796.762
860.706
921.635
979.849
1033.25
1080.04
1122.74
1161.44
1195.1
1225.07
1252.37
1276.83
1295.42
1308.61
1315.5
1314.9
1307
1293.99
1276.93
1260.52
1245.65
1172.53
1566.03
1606.52
1620.41
1645.98
1659.54
1680.6
1693.83
1711.47
1724.35
1739.68
1752.21
1765.83
1778.1
1790.56
1802.46
1814.15
1825.51
1836.7
1847.96
1859.36
1870.41
1880.79
1890.79
1900.62
1910
1919.11
1928.01
1936.52
1944.84
1953
1961.07
1968.74
1975.89
1982.6
1988.88
1994.72
2000.09
2004.95
2009.28
2013.05
2016.21
2018.75
2020.64
2021.61
2021.93
2021.66
2020.52
2018.61
2015.78
2012.28
2008.71
2003.17
1997.49
1991.11
1984.07
1976.42
1967.8
1958.59
1948.57
1937.76
1926.02
1913.42
1899.88
1885.34
1869.8
1853.32
1835.92
1817.64
1798.52
1778.66
1758.09
1736.87
1715.18
1693.05
1670.47
1647.51
1624.26
1600.58
1577.01
1553.36
1529.14
1504.85
1480.8
1456.05
1430.65
1405.78
1380.63
1353.68
1326.54
1300.09
1272.04
1240.9
1210
1180.68
1148.69
1114.39
1079.2
1043.33
1005.01
965.433
924.33
881.751
838.696
795.69
753.626
713.997
677.15
643.451
613.338
586.852
563.637
543.106
525.315
510.206
497.076
485.633
476.111
468.255
461.946
456.8
452.498
449.2
446.96
445.377
443.967
1645.97
1675.81
1692.93
1712.23
1728.97
1745.72
1760.84
1775.83
1789.78
1803.51
1816.56
1829.4
1841.82
1854.03
1865.99
1877.74
1889.26
1900.63
1911.95
1923.24
1934.31
1944.97
1955.22
1965.15
1974.78
1984.08
1993.14
2002.03
2010.78
2019.41
2027.72
2035.62
2043.08
2050.11
2056.7
2062.82
2068.43
2073.5
2078.01
2081.91
2085.19
2087.8
2089.71
2090.79
2091.16
2090.87
2089.77
2087.87
2085.16
2081.71
2077.58
2072.54
2066.8
2060.39
2053.3
2045.59
2036.98
2027.41
2017
2005.6
1993.18
1979.74
1965.34
1949.99
1933.74
1916.52
1898.34
1879.27
1859.41
1838.81
1817.53
1795.64
1773.22
1750.36
1727.18
1703.79
1680.17
1656.38
1632.46
1608.4
1584.21
1559.97
1535.66
1511.14
1486.4
1461.48
1436.14
1410.23
1383.98
1357.18
1329.34
1300.59
1271.5
1241.91
1210.83
1178.28
1144.77
1109.7
1073.26
1035.86
997.305
957.922
918.078
878.219
839.302
802.12
766.98
734.191
704.045
676.421
651.082
627.618
605.92
585.76
566.812
549.033
532.63
517.269
503.082
490.617
479.777
470.399
462.823
456.697
451.638
1706
1730.17
1748.66
1766.26
1782.9
1798.81
1813.85
1828.32
1842.28
1855.78
1868.89
1881.72
1894.28
1906.65
1918.84
1930.85
1942.69
1954.38
1965.96
1977.44
1988.68
1999.57
2010.09
2020.33
2030.24
2039.89
2049.36
2058.71
2067.97
2076.97
2085.62
2093.89
2101.74
2109.16
2116.1
2122.54
2128.45
2133.8
2138.55
2142.69
2146.17
2148.97
2151.04
2152.29
2152.78
2152.62
2151.61
2149.78
2147.11
2143.64
2139.38
2134.27
2128.37
2121.69
2114.22
2105.94
2096.73
2086.56
2075.39
2063.24
2050.19
2035.76
2020.35
2003.91
1986.36
1967.78
1948.35
1928.13
1907.25
1885.67
1863.43
1840.64
1817.43
1793.9
1770.11
1746.15
1722.09
1697.97
1673.89
1649.82
1625.76
1601.69
1577.6
1553.44
1529.18
1504.76
1480.05
1455
1429.57
1403.63
1377.05
1349.9
1322.26
1293.97
1264.76
1234.61
1203.53
1171.46
1138.3
1104.06
1068.68
1033.19
997.839
962.418
927.553
893.654
861.025
829.903
800.4
772.439
745.853
720.342
695.851
672.271
649.385
627.297
606.261
585.959
566.329
547.904
530.795
514.495
499.573
486.097
474.013
1762.15
1784.11
1803.08
1820.14
1836.61
1852.34
1867.4
1881.94
1896.04
1909.77
1923.2
1936.41
1949.37
1962.2
1974.88
1987.38
1999.7
2011.89
2023.93
2035.79
2047.39
2058.67
2069.65
2080.36
2090.77
2100.97
2111.06
2121.08
2130.92
2140.46
2149.65
2158.45
2166.82
2174.74
2182.16
2189.04
2195.36
2201.09
2206.21
2210.68
2214.49
2217.59
2219.96
2221.52
2222.25
2222.33
2221.56
2219.89
2217.33
2213.89
2209.55
2204.28
2198.1
2191
2182.96
2173.93
2163.84
2152.65
2140.34
2126.89
2112.32
2096.53
2079.62
2061.68
2042.92
2022.79
2001.83
1980.06
1957.39
1934.01
1910.17
1886.01
1861.67
1837.11
1812.38
1787.58
1762.85
1738.23
1713.77
1689.48
1665.4
1641.46
1617.55
1593.67
1569.79
1545.85
1521.77
1497.47
1472.89
1447.94
1422.54
1396.69
1370.38
1343.51
1315.96
1287.68
1258.64
1228.89
1198.44
1167.38
1135.84
1103.88
1071.48
1039.1
1007.06
975.676
946.083
917.091
888.656
861.099
834.317
808.123
782.457
757.263
732.368
707.869
684.002
660.515
637.283
614.612
593.009
572.307
552.551
533.45
515.088
1819.2
1840.76
1860.03
1877.04
1893.59
1909.49
1924.83
1939.72
1954.26
1968.53
1982.57
1996.43
2010.13
2023.66
2037.01
2050.16
2063.1
2075.86
2088.47
2100.89
2112.99
2124.78
2136.39
2147.76
2158.83
2169.72
2180.52
2191.28
2201.75
2211.93
2221.73
2231.12
2240.08
2248.56
2256.5
2263.87
2270.65
2276.81
2282.33
2287.18
2291.34
2294.81
2297.58
2299.61
2300.8
2301.23
2300.88
2299.56
2297.27
2293.97
2289.63
2284.22
2277.73
2270.14
2261.4
2251.47
2240.27
2227.79
2214.01
2198.94
2182.56
2164.89
2146.01
2126
2104.92
2082.76
2059.69
2035.87
2011.64
1986.45
1960.89
1935.04
1908.79
1882.38
1856.11
1830.09
1804.42
1779.06
1754
1729.31
1705
1681.03
1657.37
1633.87
1610.46
1586.98
1563.49
1539.93
1516.18
1492.19
1467.91
1443.3
1418.33
1392.93
1367.02
1340.58
1313.59
1286.07
1258.05
1229.59
1200.78
1171.73
1142.61
1113.51
1084.35
1055.44
1027.15
999.124
971.848
945.722
919.387
893.274
867.313
841.477
815.669
789.916
764.404
738.949
713.395
687.877
663.032
638.899
615.254
591.606
568.349
1878.44
1900.83
1920.4
1937.67
1954.58
1970.89
1986.73
2002.23
2017.47
2032.51
2047.39
2062.11
2076.65
2090.98
2105.05
2118.87
2132.44
2145.79
2158.92
2171.88
2184.66
2197.09
2209.25
2221.13
2232.86
2244.42
2255.91
2267.14
2277.99
2288.7
2298.92
2308.77
2318.2
2327.12
2335.46
2343.2
2350.29
2356.73
2362.46
2367.48
2371.88
2375.68
2378.88
2381.48
2383.4
2384.43
2384.71
2384.01
2382.28
2379.41
2375.31
2369.97
2363.38
2355.48
2346.2
2335.46
2323.18
2309.43
2294.17
2277.43
2259.18
2239.5
2218.46
2196.13
2172.62
2148
2122.41
2096.03
2069.02
2041.46
2013.64
1985.74
1958.02
1930.02
1902.22
1874.67
1847.24
1820.4
1794.31
1768.99
1744.36
1720.28
1696.62
1673.36
1650.4
1627.73
1605.06
1582.34
1559.42
1536.44
1513.31
1489.96
1466.34
1442.39
1418.06
1393.34
1368.22
1342.73
1316.9
1290.76
1264.4
1237.86
1211.24
1184.58
1158.01
1131.71
1105.61
1079.41
1053.33
1027.19
1000.93
975.525
949.93
924.069
898.022
871.745
845.358
818.732
791.726
764.358
737.241
710.496
683.908
656.747
629.734
1940.11
1964.15
1984.04
2001.75
2019.21
2036.07
2052.58
2068.83
2084.9
2100.81
2116.58
2132.13
2147.42
2162.36
2176.95
2191.2
2205.14
2218.84
2232.35
2245.74
2258.85
2271.64
2283.95
2296.05
2307.92
2319.66
2331.18
2342.25
2352.92
2363.23
2373.23
2382.97
2392.4
2401.2
2409.27
2416.87
2423.69
2429.79
2435.02
2439.33
2443.08
2446.64
2449.88
2452.81
2455.26
2457.32
2458.56
2458.98
2458.46
2456.61
2453.34
2448.89
2443.3
2436.31
2427.32
2416.48
2403.76
2389.69
2373.71
2356.04
2336.6
2315.52
2292.85
2268.65
2243.17
2216.42
2188.4
2159.34
2129.5
2099.19
2068.8
2038.51
2008.33
1978.28
1948.58
1919.36
1890.64
1862.67
1835.64
1809.43
1783.94
1759.32
1735.52
1712.44
1689.9
1667.73
1645.79
1623.98
1602.33
1580.53
1558.56
1536.31
1513.93
1491.37
1468.56
1445.48
1422.1
1398.43
1374.5
1350.35
1326.01
1301.51
1276.92
1252.3
1227.72
1203.22
1178.75
1154.28
1129.84
1105.25
1080.36
1055.19
1029.18
1003.11
977.396
950.982
924.347
897.203
869.445
841.034
812.443
783.861
755.22
725.602
695.805
2003.77
2030.05
2050.07
2068.22
2086.24
2103.63
2120.78
2137.71
2154.49
2171.08
2187.42
2203.39
2218.89
2233.86
2248.34
2262.39
2276.15
2289.77
2303.12
2316.1
2328.62
2340.71
2352.22
2363.51
2374.46
2384.9
2394.54
2403.33
2411.46
2419.18
2426.76
2434.34
2441.87
2449
2455.29
2460.82
2465.75
2469.96
2473.08
2474.68
2476.23
2478.69
2480.99
2483.18
2484.89
2487.89
2489.91
2491.7
2492.32
2491.24
2488.84
2485.41
2481.28
2476.43
2469.81
2462.08
2452.38
2440.88
2427.62
2412.72
2396.08
2377.63
2356.98
2333.97
2308.88
2281.99
2253.01
2222.31
2190.39
2157.87