/*--------------------------------*- C++ -*----------------------------------*\
| =========                 |                                                 |
| \\      /  F ield         | OpenFOAM: The Open Source CFD Toolbox           |
|  \\    /   O peration     | Version:  2112                                  |
|   \\  /    A nd           | Website:  www.openfoam.com                      |
|    \\/     M anipulation  |                                                 |
\*---------------------------------------------------------------------------*/
FoamFile
{
    version     2.0;
    format      ascii;
    arch        "LSB;label=32;scalar=64";
    class       volScalarField;
    location    "0.01089";
    object      alphat;
}
// * * * * * * * * * * * * * * * * * * * * * * * * * * * * * * * * * * * * * //

dimensions      [1 -1 -1 0 0 0 0];

internalField   nonuniform List<scalar> 
13875
(
0.119861
0.0816031
0.0784512
0.0782906
0.0783155
0.0783759
0.0782761
0.078283
0.0783071
0.0782888
0.0782801
0.0783114
0.0783852
0.0784114
0.078394
0.0782973
0.0782557
0.0782949
0.0783035
0.0783545
0.0783209
0.0782651
0.078488
0.0814639
0.120882
0.103939
0.0576792
0.05708
0.0571705
0.0566482
0.0566612
0.0570426
0.0571605
0.0571914
0.0571536
0.0571096
0.0571172
0.0566616
0.0566151
0.0566676
0.0570973
0.0571185
0.0571521
0.0570736
0.0566792
0.056674
0.0571398
0.0570685
0.0573302
0.104549
0.110619
0.0553248
0.0558748
0.0547255
0.0545786
0.0544775
0.0542929
0.0543779
0.0544192
0.0543557
0.054233
0.0543394
0.0542528
0.0542768
0.05424
0.0543495
0.054108
0.0542515
0.0542807
0.0544502
0.0545297
0.0546032
0.0557811
0.0550745
0.111348
0.115884
0.0546441
0.0553806
0.0543172
0.0540461
0.053939
0.0536962
0.0536287
0.0535817
0.053502
0.0534133
0.0534826
0.0537064
0.0537401
0.0536923
0.0534826
0.0533636
0.0534615
0.0536337
0.0539049
0.0539986
0.0542023
0.0551908
0.0543059
0.115909
0.121032
0.0546332
0.0551182
0.0537427
0.0536743
0.0535103
0.0531918
0.0531315
0.0530769
0.0530056
0.0529265
0.0529924
0.0532241
0.0532648
0.053215
0.0529938
0.0528759
0.0529535
0.0531087
0.0534739
0.0536069
0.0536119
0.0550159
0.0543322
0.121381
0.124409
0.0547439
0.055186
0.0536004
0.0533002
0.0531005
0.0528132
0.052718
0.052647
0.0525684
0.0524929
0.0525389
0.0527796
0.0528494
0.0527659
0.0525387
0.0524469
0.0525447
0.0527323
0.0530517
0.0532377
0.0535049
0.054879
0.0543952
0.123995
0.128748
0.0564741
0.0557821
0.0534487
0.0532696
0.0528994
0.0524424
0.0523168
0.0522452
0.0521804
0.052114
0.0521606
0.0524109
0.0524764
0.0523972
0.0521481
0.0520758
0.0521598
0.0523566
0.0528619
0.0531946
0.0533637
0.0556417
0.0563598
0.128876
0.135709
0.0611973
0.0578351
0.0544056
0.0534053
0.0528588
0.0523088
0.0520743
0.0519626
0.0518793
0.0518149
0.0518318
0.05211
0.0521862
0.0520821
0.0518204
0.0518047
0.0519219
0.0522169
0.0527863
0.0533243
0.0542766
0.0575131
0.0610286
0.135494
0.151316
0.0692485
0.0615423
0.0559228
0.0544115
0.0531599
0.0522647
0.0519182
0.0517819
0.0516921
0.0516345
0.0516414
0.0519438
0.0520283
0.0519212
0.0516207
0.0516524
0.051799
0.0521599
0.0530935
0.0542266
0.0556194
0.0610315
0.0684116
0.154212
0.239348
0.0874411
0.0664628
0.0589979
0.0553944
0.0537282
0.0525777
0.0520767
0.0518382
0.0517377
0.051695
0.0516835
0.0520132
0.052111
0.0519976
0.0517083
0.0517614
0.0519462
0.0524383
0.053607
0.0552599
0.0586531
0.0660128
0.0866881
0.241229
0.365432
0.118417
0.0759621
0.0629407
0.0575798
0.0548021
0.0531876
0.0526263
0.0523184
0.0522019
0.0521559
0.052131
0.0524594
0.0525717
0.0524905
0.0522577
0.0523095
0.0525487
0.0530331
0.0546177
0.0573296
0.0616308
0.074839
0.113039
0.365668
0.658412
0.193134
0.104003
0.0744005
0.0613406
0.0573248
0.0551895
0.054158
0.0536649
0.0534812
0.0533946
0.0533636
0.0536393
0.0537738
0.0537684
0.0536709
0.053755
0.0541562
0.055119
0.0568235
0.0618941
0.0733963
0.100193
0.18294
0.6437
0.582231
0.436763
0.175942
0.0922052
0.0767572
0.0649428
0.059667
0.0577777
0.0568737
0.056553
0.0563967
0.0563488
0.0565178
0.0566654
0.0567791
0.0568689
0.0571292
0.0579303
0.0598424
0.065312
0.0763343
0.0897348
0.172113
0.433744
0.581404
0.491817
0.401097
0.347089
0.326001
0.115678
0.0802882
0.0733959
0.067528
0.0650699
0.0643028
0.0638846
0.0637038
0.0637506
0.0639152
0.064216
0.0647258
0.0656868
0.0683699
0.0749557
0.0831006
0.131167
0.328376
0.337545
0.40152
0.500254
0.408562
0.349801
0.329408
0.333385
0.300795
0.198927
0.126717
0.0945453
0.0865224
0.0858796
0.0852854
0.084975
0.0850005
0.0851856
0.085651
0.0866065
0.0875812
0.0953848
0.134028
0.21287
0.302327
0.330265
0.331358
0.360366
0.421843
0.329956
0.293422
0.282243
0.300773
0.312473
0.321164
0.243915
0.191438
0.171219
0.148497
0.136359
0.132293
0.130837
0.131606
0.134341
0.143248
0.171613
0.195407
0.24954
0.324172
0.307802
0.30386
0.291643
0.298512
0.341999
0.239218
0.227246
0.225236
0.264251
0.318405
0.400394
0.530169
0.565237
0.540081
0.537881
0.557742
0.571123
0.578561
0.574876
0.561798
0.551785
0.540064
0.56861
0.532207
0.396685
0.314199
0.266886
0.230425
0.234565
0.252048
0.140488
0.152492
0.185594
0.226735
0.311766
0.432365
0.563201
0.61767
0.562229
0.512374
0.494872
0.49155
0.494282
0.493152
0.498524
0.530738
0.567203
0.607283
0.565748
0.437834
0.310428
0.229298
0.177537
0.143084
0.131219
0.0685791
0.103208
0.165313
0.250129
0.350439
0.408877
0.473619
0.533806
0.501162
0.45333
0.433304
0.430402
0.431916
0.434928
0.441416
0.463017
0.497154
0.527968
0.488441
0.427957
0.372459
0.265668
0.168592
0.104766
0.0704949
0.0268343
0.0526605
0.113543
0.229893
0.346453
0.362836
0.384942
0.426902
0.42549
0.403314
0.390882
0.384914
0.382329
0.390203
0.398765
0.406292
0.414663
0.414878
0.389757
0.377804
0.363116
0.22862
0.112198
0.0520591
0.0259918
0.0795122
0.0884912
0.114847
0.186316
0.275466
0.286097
0.307157
0.351667
0.370436
0.361868
0.349736
0.338765
0.333265
0.344765
0.356778
0.361798
0.357302
0.338179
0.307626
0.295744
0.282889
0.186201
0.113746
0.0895325
0.084833
0.125403
0.153394
0.128982
0.156536
0.207642
0.224896
0.251994
0.298135
0.322839
0.32068
0.30847
0.294287
0.287767
0.300213
0.31515
0.319976
0.310532
0.285458
0.248046
0.230064
0.210571
0.154023
0.125945
0.151265
0.126016
0.171118
0.165681
0.133211
0.134451
0.16441
0.181153
0.211606
0.255943
0.281213
0.28108
0.268733
0.25405
0.24709
0.258862
0.273741
0.278933
0.268816
0.246051
0.20599
0.183684
0.165971
0.134636
0.130369
0.162889
0.172854
0.211012
0.197329
0.134719
0.124014
0.138742
0.154802
0.180198
0.219875
0.242614
0.244311
0.232049
0.217959
0.212128
0.22246
0.236936
0.242441
0.23184
0.21073
0.176208
0.155337
0.1395
0.12413
0.133339
0.204703
0.206442
0.232898
0.234065
0.13772
0.119552
0.12287
0.135124
0.156679
0.188935
0.208528
0.210139
0.200105
0.187754
0.182483
0.191962
0.205059
0.20974
0.199765
0.181657
0.153702
0.134612
0.123213
0.1216
0.137875
0.24523
0.228554
0.254821
0.26562
0.138282
0.11605
0.112048
0.121157
0.138575
0.164479
0.180092
0.181895
0.173194
0.161971
0.157518
0.165389
0.177199
0.18131
0.172899
0.157603
0.13602
0.120751
0.112691
0.117473
0.139077
0.272677
0.251571
0.28185
0.27918
0.139214
0.112874
0.105707
0.109911
0.124366
0.143783
0.155885
0.156563
0.149727
0.140494
0.136561
0.14378
0.153706
0.156762
0.149955
0.138105
0.121371
0.108821
0.106728
0.114335
0.142055
0.292704
0.277027
0.310233
0.295319
0.138849
0.108211
0.100502
0.101808
0.112643
0.126916
0.135324
0.135911
0.130088
0.122121
0.119063
0.124974
0.133927
0.137147
0.132091
0.122428
0.110131
0.100804
0.101773
0.109933
0.142529
0.310597
0.306258
0.343063
0.324565
0.143225
0.105912
0.0978953
0.0952969
0.102937
0.112785
0.119173
0.118744
0.113967
0.107363
0.104311
0.109612
0.116618
0.119065
0.115647
0.109032
0.100574
0.0944092
0.0986537
0.106719
0.144655
0.324798
0.336055
0.371384
0.33942
0.143532
0.1018
0.0935373
0.0907829
0.0953575
0.101364
0.104886
0.104229
0.100009
0.0942719
0.0919907
0.0962878
0.102787
0.105366
0.103124
0.097947
0.09278
0.0887445
0.0941773
0.103228
0.146206
0.34265
0.361573
0.385879
0.3458
0.148622
0.100698
0.0911528
0.0863762
0.0890757
0.0910309
0.0932143
0.0918617
0.0884902
0.0838642
0.0815047
0.0856924
0.0908752
0.0929216
0.091939
0.0891154
0.0870477
0.0848975
0.090766
0.101197
0.148578
0.343714
0.383956
0.395454
0.345865
0.152776
0.0992825
0.0864884
0.0815352
0.0834973
0.0836102
0.083979
0.0823938
0.0790875
0.0746023
0.0727554
0.0760367
0.0809965
0.0832344
0.0830371
0.0812943
0.081703
0.0796946
0.0858869
0.0994587
0.150359
0.33875
0.40104
0.414383
0.340215
0.158472
0.100478
0.0845333
0.0780482
0.0790593
0.0764442
0.0759373
0.0737276
0.0709268
0.0672763
0.0653326
0.0686695
0.0727115
0.0746022
0.0753367
0.0751046
0.0772161
0.0763529
0.0830314
0.0996852
0.157036
0.343031
0.413677
0.42193
0.333444
0.163069
0.100828
0.080693
0.0741596
0.0735588
0.0707929
0.0690598
0.0668659
0.0641625
0.0605606
0.0590866
0.0617011
0.0658111
0.0680652
0.0691495
0.06942
0.0723904
0.0722628
0.0797736
0.0997084
0.163617
0.336588
0.420494
0.42922
0.330653
0.163906
0.104086
0.080766
0.0720688
0.069879
0.0656226
0.0635641
0.0607417
0.0583553
0.0553952
0.0537722
0.0564115
0.0596686
0.0614837
0.06345
0.0647392
0.068503
0.0700974
0.0784818
0.101702
0.166571
0.33626
0.428902
0.436114
0.322626
0.162004
0.105698
0.0804046
0.0686699
0.06522
0.0610154
0.0585999
0.0558591
0.0534474
0.0504279
0.0492267
0.0513059
0.0547633
0.0570044
0.0587818
0.0598355
0.0644399
0.067485
0.0782898
0.104464
0.166358
0.334369
0.431244
0.441404
0.32495
0.161918
0.110538
0.0823014
0.0673278
0.0625661
0.0567487
0.0543302
0.0512815
0.0491288
0.0466846
0.045337
0.0475053
0.0502513
0.0520736
0.0547284
0.0562259
0.0616411
0.0657158
0.0798511
0.108756
0.164006
0.330608
0.437698
0.437941
0.324446
0.159935
0.118378
0.0840403
0.0656641
0.0590948
0.053121
0.0504788
0.0478376
0.0456075
0.0429847
0.0419609
0.0436594
0.0466726
0.0487494
0.0507139
0.0520698
0.0582182
0.064161
0.0809061
0.116025
0.159662
0.32398
0.443981
0.433447
0.323409
0.156584
0.122458
0.0872686
0.0666042
0.0573465
0.0499734
0.0472449
0.0442496
0.0423362
0.0402108
0.0390635
0.040942
0.0432811
0.0448771
0.0477698
0.0495498
0.056108
0.0647297
0.0850737
0.120816
0.154867
0.324501
0.444898
0.422605
0.323971
0.149849
0.122327
0.0916744
0.0666316
0.054834
0.047231
0.0442203
0.0416756
0.0396837
0.0373742
0.0365358
0.0379588
0.0406621
0.0425053
0.0446253
0.0465756
0.0540309
0.0649317
0.0882988
0.120855
0.148827
0.327883
0.439182
0.410695
0.323776
0.145373
0.122386
0.100343
0.0695868
0.0552291
0.0454918
0.0420564
0.0389049
0.037167
0.0353392
0.0343144
0.035884
0.0379592
0.0393902
0.0426194
0.045137
0.0537793
0.0670224
0.0956593
0.120355
0.146032
0.333733
0.426807
0.406073
0.321275
0.139652
0.119998
0.107748
0.0711198
0.054278
0.044109
0.0399124
0.0370921
0.0351697
0.0330719
0.0323551
0.0335569
0.036044
0.0377378
0.0402625
0.0434427
0.0535176
0.069302
0.107217
0.11974
0.145263
0.331936
0.404823
0.397736
0.322719
0.137284
0.116201
0.107723
0.076225
0.0556186
0.0441703
0.0388735
0.034993
0.0331932
0.0315269
0.0306263
0.0319998
0.0339111
0.0354305
0.0394627
0.0435219
0.0542118
0.0738282
0.107248
0.11715
0.142076
0.32679
0.392115
0.389136
0.319203
0.136508
0.111184
0.106992
0.0843869
0.0570208
0.0439136
0.0378496
0.0339311
0.0317716
0.0297336
0.0290803
0.0301273
0.0325184
0.0342912
0.0379579
0.0431507
0.0554446
0.0809352
0.106504
0.11256
0.13919
0.32419
0.38197
0.382834
0.316788
0.134978
0.105971
0.103778
0.0932069
0.0609756
0.0446261
0.0380944
0.0327873
0.0303478
0.0285854
0.0277262
0.0289909
0.0308606
0.0328508
0.0383891
0.0441894
0.0593449
0.0929724
0.104806
0.108364
0.140131
0.318757
0.375691
0.375789
0.314834
0.136118
0.102887
0.0991321
0.0930935
0.067894
0.046009
0.0378211
0.0327479
0.0296725
0.0272912
0.0265481
0.0276107
0.0303212
0.0327185
0.0378929
0.0451889
0.0653857
0.0923957
0.100872
0.103844
0.13838
0.320633
0.373424
0.363462
0.307971
0.138302
0.100547
0.0945547
0.0918312
0.0790162
0.0499649
0.0388961
0.0324884
0.0291147
0.0268564
0.0256949
0.027124
0.0294305
0.0323301
0.0388376
0.0486073
0.0753581
0.0917037
0.0957301
0.100798
0.141592
0.318784
0.366584
0.353731
0.303686
0.137569
0.0985304
0.0908183
0.0887254
0.0789705
0.056007
0.0398627
0.0328545
0.0293079
0.0264213
0.0252916
0.02654
0.0298389
0.0328014
0.039631
0.0546639
0.0781183
0.0889676
0.0916016
0.0998282
0.143888
0.310398
0.356299
0.327239
0.291996
0.136668
0.0976176
0.0880627
0.084784
0.0783262
0.0656874
0.0437889
0.0332241
0.029192
0.0266021
0.0252864
0.0267777
0.0294381
0.0330278
0.0434363
0.0639306
0.078031
0.0850981
0.0884614
0.0990373
0.142003
0.296651
0.332081
0.295496
0.273533
0.133199
0.0963333
0.0856322
0.0807887
0.076498
0.0677215
0.04904
0.0355134
0.0299445
0.0265338
0.0253117
0.0265924
0.0303082
0.0349286
0.0487008
0.0683427
0.0765634
0.0805801
0.0858558
0.0973988
0.137413
0.276472
0.301396
0.118999
0.561042
0.835207
0.953028
0.975988
0.973609
0.967475
0.968369
0.97111
0.96774
0.948725
0.915351
0.866503
0.798777
0.721318
0.637823
0.553508
0.47344
0.400606
0.339001
0.287763
0.247488
0.216811
0.192438
0.170659
0.149904
0.128346
0.106304
0.0850118
0.0770536
0.113913
0.597444
0.862348
0.964797
0.977527
0.972122
0.964437
0.966105
0.971297
0.972611
0.963566
0.942566
0.90372
0.846934
0.777287
0.697231
0.611508
0.525913
0.444893
0.373936
0.313189
0.264514
0.226724
0.197208
0.17245
0.149754
0.12717
0.104373
0.083574
0.075792
0.122539
0.640919
0.887095
0.979023
0.98739
0.983281
0.977304
0.98236
0.992315
1.00061
1.00004
0.988388
0.957181
0.908303
0.844652
0.767442
0.68084
0.58984
0.499988
0.418372
0.346757
0.287792
0.24119
0.2053
0.17636
0.15095
0.126652
0.103067
0.0827112
0.0752371
0.128135
0.66481
0.908669
0.995228
1.00183
0.99614
0.98842
0.993865
1.0057
1.01782
1.0237
1.01994
0.998016
0.960149
0.905872
0.835348
0.7518
0.658997
0.56264
0.470862
0.387815
0.317415
0.260773
0.216735
0.18224
0.153143
0.12639
0.10197
0.081667
0.0745715
0.129802
0.682051
0.929866
1.0132
1.01873
1.01133
1.00202
1.00699
1.02003
1.03611
1.04891
1.05298
1.04052
1.01269
0.968023
0.905597
0.827387
0.735456
0.634887
0.533983
0.439589
0.356361
0.287502
0.23333
0.191543
0.15755
0.127779
0.101774
0.0810124
0.0742454
0.131055
0.701567
0.952145
1.03239
1.03581
1.02597
1.01416
1.01795
1.03214
1.05133
1.06867
1.07917
1.0749
1.05616
1.02088
0.967586
0.896392
0.808198
0.709007
0.603355
0.498994
0.40295
0.320738
0.254804
0.203909
0.163834
0.130173
0.101946
0.0803391
0.0738731
0.132783
0.721821
0.973692
1.05066
1.05135
1.03878
1.02501
1.02761
1.04297
1.06359
1.08458
1.10031
1.10328
1.09237
1.06593
1.02224
0.959692
0.88003
0.785574
0.679138
0.567032
0.45925
0.362921
0.283334
0.221204
0.173274
0.134572
0.103219
0.0802986
0.0737192
0.134717
0.740919
0.993672
1.06709
1.06521
1.04992
1.03472
1.03649
1.05009
1.07146
1.09448
1.11312
1.12049
1.11486
1.09588
1.06163
1.01109
0.943633
0.858174
0.755309
0.640407
0.522998
0.413075
0.318596
0.243392
0.185786
0.140734
0.10537
0.0802037
0.0732156
0.136587
0.756815
1.0117
1.08151
1.07702
1.05923
1.0428
1.04381
1.05408
1.07469
1.09776
1.11675
1.12566
1.12487
1.11447
1.09273
1.05563
1.00054
0.927111
0.831882
0.718497
0.595191
0.472966
0.363256
0.273021
0.203267
0.150045
0.108711
0.080549
0.0731176
0.137727
0.769824
1.02748
1.09374
1.08683
1.06637
1.04887
1.0477
1.05711
1.07347
1.0943
1.11054
1.12139
1.12896
1.12869
1.11674
1.09032
1.04848
0.987089
0.903205
0.796435
0.671909
0.540716
0.416174
0.309645
0.225923
0.162363
0.113615
0.081438
0.0732185
0.137992
0.78023
1.03992
1.10342
1.09439
1.07128
1.05282
1.04922
1.05679
1.06988
1.0845
1.10073
1.11763
1.1312
1.13854
1.13427
1.11811
1.08869
1.03992
0.968035
0.870834
0.750689
0.615349
0.478508
0.355127
0.255044
0.17887
0.121118
0.0830858
0.0732856
0.137773
0.788529
1.04827
1.11009
1.09939
1.07415
1.05475
1.04908
1.05346
1.06185
1.07551
1.09437
1.11402
1.13054
1.14419
1.1462
1.1388
1.11992
1.08249
1.022
0.936107
0.824509
0.691212
0.546949
0.40837
0.290747
0.199476
0.130437
0.0851572
0.0732212
0.13729
0.792518
1.05388
1.1133
1.10168
1.07514
1.0546
1.04716
1.04728
1.05425
1.06903
1.08896
1.10971
1.12884
1.14636
1.15337
1.15304
1.1433
1.11623
1.06751
0.993921
0.890974
0.763417
0.617863
0.468576
0.333405
0.225111
0.142765
0.088422
0.0734126
0.136114
0.793689
1.05549
1.1135
1.10124
1.07396
1.05242
1.04371
1.04059
1.04751
1.06329
1.08354
1.1048
1.12569
1.14503
1.15672
1.16206
1.15975
1.14175
1.10413
1.04297
0.952966
0.833238
0.688801
0.531955
0.381512
0.255194
0.158229
0.0927844
0.0735731
0.135238
0.790051
1.05191
1.10981
1.09842
1.07031
1.0486
1.03907
1.0336
1.04079
1.05737
1.07834
1.09952
1.12147
1.14172
1.15716
1.16738
1.17117
1.16118
1.13373
1.08443
1.00726
0.899829
0.761329
0.601327
0.437201
0.292126
0.17847
0.0989298
0.0737911
0.13358
0.783437
1.04591
1.10188
1.09185
1.06423
1.04295
1.03292
1.02713
1.0347
1.05166
1.07303
1.09409
1.11685
1.13752
1.15547
1.17028
1.17888
1.17571
1.15736
1.11932
1.05482
0.959604
0.830055
0.671949
0.498195
0.336961
0.204141
0.107251
0.0739357
0.131361
0.773081
1.02791
1.08931
1.08113
1.05495
1.03538
1.02564
1.02042
1.02869
1.04607
1.06757
1.08899
1.11267
1.13364
1.15281
1.17202
1.18443
1.18687
1.17635
1.14849
1.09622
1.01339
0.894071
0.741373
0.564681
0.390114
0.236248
0.11869
0.0742946
0.129089
0.760131
1.01198
1.07312
1.0661
1.04195
1.02566
1.01677
1.01323
1.02259
1.04081
1.06288
1.08472
1.10933
1.13069
1.15065
1.17306
1.18884
1.19552
1.1911
1.17148
1.1296
1.0585
0.950915
0.806969
0.635556
0.450383
0.27508
0.134055
0.0750404
0.126376
0.741901
0.988231
1.04603
1.04563
1.02487
1.01323
1.00623
1.00527
1.01622
1.03556
1.05834
1.08102
1.10763
1.12929
1.15011
1.17401
1.19317
1.20287
1.20287
1.18942
1.1558
1.09527
1.0013
0.871125
0.70849
0.51658
0.320972
0.154429
0.0760671
0.123629
0.722775
0.961149
1.01777
1.01923
1.00369
0.997552
0.993754
0.996207
1.00938
1.0303
1.05424
1.07836
1.10616
1.13041
1.15157
1.17586
1.1978
1.20987
1.21295
1.20435
1.17787
1.12788
1.04778
0.932221
0.778931
0.585151
0.37273
0.179959
0.0771957
0.120349
0.698472
0.92643
0.981989
0.986391
0.977637
0.97824
0.978908
0.985654
1.00177
1.02483
1.05038
1.07642
1.10605
1.13222
1.15553
1.17966
1.20277
1.21717
1.2224
1.21784
1.198
1.1578
1.09033
0.98821
0.843688
0.651315
0.429604
0.211111
0.0789678
0.117596
0.67208
0.88332
0.937469
0.944424
0.94566
0.954604
0.961222
0.973182
0.993001
1.01883
1.04654
1.07518
1.1069
1.13608
1.16092
1.18594
1.20855
1.22512
1.23199
1.23069
1.21669
1.18518
1.12872
1.03782
0.902398
0.716795
0.490826
0.247911
0.0812629
0.113998
0.634083
0.822012
0.87759
0.893585
0.906686
0.925992
0.940058
0.958227
0.982612
1.01195
1.04247
1.07438
1.10858
1.14119
1.16805
1.19424
1.21611
1.23316
1.24207
1.24328
1.23413
1.20965
1.16229
1.0817
0.956645
0.782792
0.556251
0.290411
0.0842392
0.113122
0.568841
0.719333
0.787111
0.823359
0.855792
0.890232
0.914118
0.939825
0.969892
1.00363
1.03774
1.07359
1.11087
1.14673
1.17606
1.20219
1.2236
1.2396
1.25085
1.25411
1.24952
1.231
1.1915
1.12096
1.00899
0.846641
0.622487
0.337273
0.0879827
0.0969933
0.40246
0.513658
0.634172
0.720466
0.78564
0.844406
0.881452
0.917005
0.953995
0.99321
1.03192
1.07237
1.11312
1.15156
1.18323
1.20881
1.22779
1.24242
1.25489
1.26091
1.26061
1.24833
1.21664
1.15623
1.0564
0.904376
0.685358
0.38589
0.0924094
0.0762359
0.0852667
0.106957
0.129285
0.150578
0.171133
0.191619
0.215252
0.245601
0.284559
0.333756
0.393915
0.465665
0.546466
0.63122
0.714978
0.792254
0.86008
0.909683
0.942389
0.961117
0.964213
0.960663
0.958134
0.961255
0.961344
0.936455
0.81745
0.544543
0.116011
0.0753731
0.0839592
0.105192
0.127965
0.150191
0.172665
0.196337
0.2242
0.261329
0.308141
0.366237
0.435551
0.516188
0.602174
0.688949
0.769886
0.839934
0.896841
0.936321
0.957174
0.965411
0.963914
0.957949
0.954858
0.959771
0.96342
0.94889
0.844986
0.579898
0.11115
0.0749639
0.0831617
0.103897
0.12719
0.151043
0.176057
0.203656
0.237521
0.282284
0.339212
0.408274
0.487921
0.57751
0.66936
0.757581
0.836131
0.900752
0.949995
0.98201
0.993969
0.993466
0.984872
0.974402
0.967885
0.970613
0.973798
0.963055
0.870084
0.62463
0.119623
0.074524
0.0822098
0.10283
0.126933
0.152746
0.180918
0.213368
0.254772
0.308779
0.376937
0.457805
0.548218
0.644497
0.738376
0.82412
0.896596
0.952456
0.991059
1.01381
1.01805
1.01141
0.998785
0.986103
0.978848
0.983257
0.988232
0.979504
0.891546
0.648876
0.125282
0.0743146
0.0817253
0.102653
0.128153
0.156674
0.188693
0.227533
0.278289
0.343703
0.424375
0.517343
0.617526
0.718249
0.812272
0.893414
0.958328
1.00503
1.03383
1.04766
1.04396
1.03102
1.01427
0.999645
0.992607
0.998331
1.00514
0.998006
0.912584
0.66609
0.126805
0.0738435
0.0810315
0.102614
0.130053
0.161926
0.199012
0.245802
0.30755
0.385716
0.47908
0.582615
0.688381
0.788703
0.878675
0.953553
1.00971
1.04751
1.0677
1.07385
1.06404
1.04635
1.02697
1.01144
1.00518
1.01318
1.02233
1.01733
0.934875
0.685337
0.128044
0.0734965
0.0806245
0.103342
0.133614
0.169718
0.213665
0.270404
0.344764
0.43658
0.5422
0.653918
0.761768
0.857542
0.938696
1.00438
1.05108
1.08027
1.0934
1.09338
1.07858
1.05755
1.0368
1.02174
1.01639
1.02647
1.03789
1.03542
0.956495
0.705534
0.130002
0.0730188
0.0802021
0.104598
0.138502
0.180088
0.232489
0.300972
0.389376
0.495023
0.610316
0.725325
0.831391
0.920331
0.990288
1.04215
1.07798
1.0989
1.10691
1.1027
1.0857
1.06342
1.04203
1.02954
1.0255
1.03816
1.05175
1.05178
0.976491
0.724783
0.13181
0.0731053
0.0806769
0.10757
0.146006
0.194887
0.257824
0.340197
0.443462
0.561548
0.683861
0.798598
0.897834
0.97648
1.03519
1.07505
1.09809
1.10859
1.11022
1.10346
1.08643
1.06442
1.04424
1.03415
1.03249
1.04786
1.06377
1.06626
0.994485
0.741247
0.133854
0.073266
0.0815452
0.111832
0.156289
0.213772
0.289425
0.387502
0.505695
0.634003
0.75935
0.869129
0.958493
1.02506
1.07116
1.10092
1.11515
1.11618
1.10874
1.09652
1.08197
1.06189
1.04548
1.03623
1.03748
1.05525
1.07367
1.0789
1.01043
0.754429
0.13511
0.0735469
0.0830412
0.117783
0.170109
0.238742
0.329298
0.444276
0.576398
0.711162
0.834692
0.935515
1.01282
1.06686
1.10051
1.11994
1.12678
1.12042
1.1074
1.09039
1.07385
1.05799
1.04517
1.03695
1.04095
1.0603
1.08129
1.08912
1.02346
0.765185
0.135518
0.0735986
0.0847509
0.125484
0.187638
0.269719
0.377048
0.508508
0.651092
0.787246
0.903289
0.993052
1.05816
1.10015
1.12262
1.13308
1.13388
1.12174
1.10555
1.08623
1.0672
1.05212
1.04251
1.03704
1.04316
1.06321
1.08661
1.0963
1.03297
0.773951
0.135539
0.0736272
0.0871271
0.135473
0.209536
0.307564
0.432898
0.578466
0.725984
0.857226
0.962461
1.04159
1.0947
1.12559
1.13817
1.14081
1.13693
1.12125
1.10223
1.08191
1.06208
1.04663
1.03758
1.0359
1.04386
1.06405
1.08924
1.10017
1.03866
0.779729
0.135131
0.0736571
0.0903469
0.148312
0.235766
0.351785
0.494452
0.649316
0.795526
0.918862
1.01464
1.08128
1.12291
1.14394
1.14833
1.14458
1.13635
1.11865
1.09777
1.07695
1.05699
1.04108
1.03249
1.03353
1.04275
1.06265
1.08929
1.10085
1.0416
0.781617
0.13454
0.0739326
0.0951748
0.165403
0.268672
0.402827
0.560796
0.720976
0.863572
0.977278
1.05954
1.11351
1.14432
1.15674
1.15449
1.14557
1.13304
1.11473
1.09259
1.07179
1.05158
1.03497
1.02641
1.02978
1.03971
1.05923
1.08708
1.0981
1.03941
0.780427
0.133418
0.0741632
0.10191
0.187469
0.309108
0.460353
0.63035
0.791473
0.92656
1.02706
1.09652
1.13897
1.1603
1.16553
1.15807
1.14466
1.12871
1.1102
1.08725
1.06663
1.04588
1.02912
1.02061
1.02419
1.03464
1.05393
1.08143
1.09123
1.03373
0.773884
0.132117
0.0744689
0.111172
0.21528
0.357703
0.525192
0.700917
0.857489
0.981776
1.0701
1.12737
1.15948
1.17269
1.17202
1.16059
1.14283
1.12461
1.10603
1.08238
1.061
1.04019
1.02321
1.01429
1.01772
1.02744
1.04593
1.07174
1.08009
1.01913
0.764795
0.130242
0.0749493
0.123788
0.249484
0.413924
0.595103
0.769251
0.91768
1.02992
1.10603
1.15249
1.17588
1.18255
1.17733
1.1628
1.14107
1.12171
1.10285
1.07861
1.05598
1.03471
1.01706
1.0073
1.00976
1.01816
1.03421
1.05776
1.06443
1.00324
0.753047
0.128133
0.075731
0.140805
0.291021
0.47716
0.668202
0.835941
0.972154
1.07112
1.136
1.17326
1.18956
1.19114
1.18257
1.1651
1.14074
1.12055
1.10152
1.07537
1.05166
1.02958
1.01076
0.999484
0.999701
1.00635
1.01831
1.03843
1.03904
0.981207
0.735759
0.125574
0.076685
0.162625
0.338408
0.544115
0.740183
0.899759
1.02204
1.10763
1.16162
1.19082
1.20145
1.19929
1.18834
1.16784
1.1426
1.12205
1.10096
1.07264
1.04759
1.02435
1.00394
0.99049
0.987413
0.991465
0.998064
1.01294
1.01133
0.954068
0.717215
0.122933
0.0779512
0.189762
0.391812
0.610341
0.8074
0.95916
1.06816
1.14096
1.18468
1.2066
1.21247
1.20761
1.1946
1.17198
1.14706
1.12491
1.10122
1.07091
1.04395
1.01902
0.996439
0.980038
0.972712
0.972869
0.97289
0.98184
0.976235
0.91975
0.69358
0.119758
0.079745
0.22279
0.450578
0.676276
0.868914
1.01214
1.10945
1.17091
1.20552
1.22112
1.22311
1.21644
1.20132
1.17835
1.15352
1.1298
1.1026
1.07007
1.04048
1.01335
0.987962
0.967769
0.955194
0.949858
0.941706
0.938473
0.931589
0.876973
0.667805
0.117082
0.0822933
0.26235
0.515264
0.743813
0.925879
1.05861
1.14527
1.19713
1.22431
1.23479
1.23382
1.2257
1.20897
1.18712
1.16129
1.136
1.10488
1.06975
1.03683
1.00689
0.977973
0.953125
0.934298
0.921809
0.903259
0.888434
0.871554
0.816282
0.630843
0.113532
0.0855576
0.307398
0.583026
0.810449
0.980757
1.10007
1.17622
1.21993
1.24105
1.24719
1.24391
1.23385
1.21716
1.19597
1.17026
1.14257
1.10777
1.06953
1.03259
0.999096
0.965779
0.935246
0.909021
0.886774
0.854441
0.819303
0.781617
0.714928
0.566481
0.112659
0.089494
0.35556
0.649232
0.871847
1.03058
1.13687
1.20262
1.23838
1.25342
1.25526
1.2501
1.23824
1.2226
1.20321
1.17822
1.14806
1.11043
1.06885
1.02744
0.989078
0.950428
0.91309
0.877673
0.842
0.78473
0.717872
0.631452
0.512288
0.400421
0.0968275
0.479368
0.478491
0.484231
0.487162
0.493127
0.496994
0.502787
0.507319
0.513043
0.518095
0.523872
0.529357
0.53527
0.541152
0.547252
0.553465
0.559764
0.566083
0.572483
0.57894
0.585389
0.591722
0.597906
0.603897
0.609607
0.614741
0.619545
0.623874
0.627808
0.631404
0.63474
0.637746
0.640244
0.642155
0.643523
0.644368
0.64467
0.644396
0.643507
0.64196
0.639705
0.636694
0.632895
0.628336
0.622915
0.616635
0.609598
0.601892
0.593588
0.584661
0.575992
0.566235
0.557303
0.547976
0.538418
0.528559
0.518096
0.507508
0.496584
0.485212
0.473317
0.461104
0.448602
0.4358
0.422699
0.409401
0.395989
0.382521
0.36905
0.355656
0.342427
0.329446
0.316749
0.304458
0.292591
0.281237
0.270422
0.260186
0.250509
0.24136
0.2328
0.224818
0.217303
0.210279
0.203813
0.197757
0.191995
0.186709
0.181867
0.177236
0.172721
0.16873
0.165193
0.161436
0.157804
0.154797
0.152463
0.150209
0.148198
0.14647
0.145139
0.144261
0.143833
0.143833
0.144261
0.144915
0.145697
0.146449
0.147096
0.147396
0.147249
0.146705
0.145597
0.143825
0.141481
0.138651
0.135229
0.131235
0.12656
0.12131
0.115732
0.110005
0.104269
0.0987995
0.0939536
3.80639
3.78905
3.82982
3.86985
3.91552
3.96127
4.00997
4.05867
4.10931
4.16
4.2115
4.26239
4.31283
4.36185
4.40939
4.45507
4.50189
4.55
4.5981
4.64512
4.6913
4.73693
4.78134
4.82401
4.86395
4.89944
4.93171
4.96168
4.98983
5.01666
5.04002
5.05967
5.0756
5.08793
5.09674
5.10199
5.1035
5.101
5.09416
5.08262
5.06605
5.04419
5.01686
4.98409
4.94567
4.9016
4.85251
4.79864
4.74027
4.67796
4.61155
4.54043
4.46647
4.39007
4.31146
4.2324
4.14742
4.05816
3.9667
3.87213
3.77438
3.67314
3.56893
3.46191
3.35243
3.24137
3.12939
3.01682
2.90413
2.79209
2.68138
2.57253
2.46609
2.36212
2.26085
2.16069
2.06181
1.96597
1.87597
1.79059
1.70975
1.63355
1.56178
1.49424
1.4308
1.37109
1.31454
1.26081
1.20955
1.16031
1.11273
1.06704
1.02394
0.983585
0.945841
0.909975
0.874012
0.838394
0.804125
0.771775
0.742095
0.715502
0.692341
0.672992
0.657562
0.64597
0.638149
0.633806
0.632425
0.633299
0.635602
0.638718
0.641766
0.643985
0.644664
0.643269
0.638697
0.63042
0.616841
0.596953
0.570288
0.536807
0.496448
0.451106
0.403464
6.36902
6.34482
6.38592
6.43709
6.49314
6.55106
6.61098
6.67174
6.73319
6.79523
6.8575
6.91924
6.97992
7.03887
7.09594
7.15137
7.20579
7.2614
7.31702
7.37114
7.42316
7.47305
7.52063
7.56561
7.60323
7.6358
7.6648
7.69122
7.71574
7.73455
7.74877
7.75816
7.76261
7.76231
7.75735
7.74763
7.73288
7.71275
7.68681
7.65471
7.6162
7.57113
7.51944
7.46118
7.39634
7.32474
7.24731
7.16428
7.07599
6.98299
6.88547
6.78272
6.67605
6.56555
6.45147
6.33424
6.21286
6.08591
5.95417
5.81913
5.67417
5.52365
5.37514
5.22313
5.06876
4.91193
4.75309
4.59276
4.43189
4.27186
4.11373
3.95814
3.80565
3.65706
3.51285
3.37309
3.23794
3.10748
2.97979
2.85724
2.74158
2.63308
2.53069
2.43393
2.34219
2.25487
2.17168
2.09219
2.01591
1.94239
1.87141
1.80294
1.73692
1.67328
1.61188
1.55273
1.49512
1.43921
1.38535
1.3341
1.28631
1.24238
1.20124
1.16439
1.13181
1.1038
1.08017
1.06072
1.0451
1.03278
1.02306
1.01541
1.00892
1.0028
0.996365
0.988794
0.978852
0.965712
0.948401
0.92485
0.894127
0.856988
0.813404
0.763462
0.708005
7.95928
7.9254
7.95572
8.0035
8.05478
8.10862
8.16413
8.22056
8.2775
8.33446
8.39086
8.44607
8.49963
8.5511
8.60043
8.64836
8.69502
8.74033
8.78435
8.82724
8.86771
8.90522
8.93944
8.96885
8.99072
9.00756
9.02098
9.03211
9.0385
9.03888
9.03442
9.02508
9.01109
8.99259
8.96956
8.94184
8.90913
8.87107
8.82735
8.77779
8.72243
8.66131
8.59438
8.52169
8.44346
8.35941
8.27012
8.17589
8.07671
7.9727
7.86386
7.7501
7.63174
7.50876
7.38119
7.24898
7.11167
6.9694
6.82254
6.67175
6.51659
6.35648
6.19253
6.02607
5.85072
5.6698
5.49687
5.3227
5.1491
4.97628
4.80451
4.63442
4.46696
4.30351
4.14489
3.99164
3.84418
3.70307
3.56846
3.44022
3.31724
3.19924
3.08699
2.98235
2.88326
2.7883
2.69674
2.60811
2.52215
2.43863
2.3573
2.27808
2.20094
2.1259
2.0529
1.98194
1.9132
1.84666
1.78262
1.72133
1.66295
1.60773
1.55617
1.50869
1.46511
1.42611
1.39001
1.35742
1.32931
1.3046
1.28277
1.26345
1.2461
1.23008
1.21488
1.19978
1.18383
1.16624
1.14626
1.12262
1.09364
1.05919
1.01942
0.9748
0.924913
8.9024
8.8557
8.8723
8.91159
8.95278
8.99666
9.0417
9.08693
9.13177
9.17553
9.21759
9.25744
9.29484
9.32986
9.36304
9.39497
9.42596
9.45576
9.48376
9.5078
9.52875
9.5471
9.56256
9.57071
9.57165
9.56765
9.56051
9.55176
9.53491
9.51326
9.48727
9.4571
9.42309
9.3853
9.34366
9.29797
9.248
9.19352
9.13437
9.07066
9.00272
8.93067
8.8543
8.77379
8.68962
8.60174
8.50948
8.41369
8.31379
8.20967
8.10129
7.98861
7.87152
7.74978
7.62336
7.49239
7.35694
7.21704
7.07272
6.92425
6.77157
6.61509
6.45543
6.29327