/*--------------------------------*- C++ -*----------------------------------*\
| =========                 |                                                 |
| \\      /  F ield         | OpenFOAM: The Open Source CFD Toolbox           |
|  \\    /   O peration     | Version:  2112                                  |
|   \\  /    A nd           | Website:  www.openfoam.com                      |
|    \\/     M anipulation  |                                                 |
\*---------------------------------------------------------------------------*/
FoamFile
{
    version     2.0;
    format      ascii;
    arch        "LSB;label=32;scalar=64";
    class       volScalarField;
    location    "0.01089";
    object      k;
}
// * * * * * * * * * * * * * * * * * * * * * * * * * * * * * * * * * * * * * //

dimensions      [0 2 -2 0 0 0 0];

internalField   nonuniform List<scalar> 
13875
(
812.108
3462.67
3540.43
3539.87
3541.14
3539.81
3540.57
3542.56
3540.25
3539.59
3541.16
3541.47
3540.98
3540.14
3540.42
3541.18
3541.89
3541.17
3540.76
3540.23
3541.16
3538.99
3540.13
3460.26
820.421
881.795
2936.66
3013.09
3001.12
3001.04
2998.54
2997.21
2999.9
2998.29
2997.13
2997.19
2998.35
2996.74
2996.37
2996.16
2998.49
2996.22
2997.1
2996.98
2998.58
3000.44
2999.28
3011.61
2933.34
894.558
993.355
2710.86
2777.5
2755.66
2758.92
2755.61
2746.55
2746.56
2744.81
2743.42
2742.59
2744.26
2751.55
2752.15
2750.85
2744.63
2741.19
2742.68
2745.32
2755.08
2757.65
2753.16
2774.41
2706.37
998.481
1091.06
2533.66
2580.96
2561.63
2566.75
2563.36
2552.94
2551.3
2549.14
2548.07
2547.88
2548.38
2559.33
2560.01
2558.82
2548.64
2547.29
2547.54
2551.16
2562.9
2565.47
2559.4
2579
2529.63
1094
1172.11
2380.42
2413.11
2392.79
2398.04
2394.43
2384.1
2382.14
2380.39
2379.8
2379.73
2379.46
2390.26
2391.4
2389.87
2379.73
2379.15
2379.03
2382.35
2393.9
2396.76
2391.16
2410.33
2375.86
1177.51
1241.01
2237.09
2270.85
2244.7
2251.22
2246.12
2234.7
2232.49
2231.07
2230.87
2230.93
2230.01
2240.74
2242.29
2240.49
2230.18
2230.45
2229.91
2233.09
2245.68
2249.93
2243.73
2267.75
2247.58
1247.05
1320.99
2121.8
2158.26
2120.07
2123.02
2115.97
2102.9
2099.61
2098.51
2098.62
2098.68
2097.19
2107.97
2109.69
2107.53
2097.21
2098.51
2097.68
2101.55
2115.49
2121.67
2119.74
2153.97
2095.82
1322.97
1409.79
2000.74
2073.5
2019.42
2016.25
2002.93
1986.87
1981.75
1980.77
1981.02
1981.1
1978.88
1989.81
1991.89
1989.42
1978.77
1981.37
1980.52
1985.43
2002.17
2013.95
2017.98
2068.28
1992.77
1419.76
1691.48
2029.5
2021.98
1944.19
1924.89
1905.11
1885.16
1877.9
1876.53
1877.06
1877.3
1874.45
1885.49
1887.98
1885.35
1874.55
1878.02
1877.17
1883.35
1903.86
1922.4
1942.18
2017.85
2033.4
1716.29
2509.33
2285.53
2018.12
1901.1
1858.96
1826.71
1803.4
1795.27
1793.12
1793.45
1793.49
1790.37
1801.11
1803.97
1801.43
1791.81
1794.84
1795.04
1801.34
1824.71
1855.62
1891.53
2011.49
2266.18
2529.56
3877.52
3027.1
2153.71
1915.89
1815.01
1772.53
1745.42
1733.85
1730.68
1730.2
1729.72
1726.56
1736.47
1739.61
1737.99
1730.92
1733.09
1735.04
1744.97
1768.24
1813.3
1907.21
2129.64
2936.42
3858.78
5187.57
6458.26
2852.8
1994.47
1853.96
1756.44
1712.12
1695.46
1689.37
1687.44
1686.17
1683.36
1691.53
1694.84
1694.72
1690.7
1692.79
1697.81
1712.24
1757.77
1847.07
1974.04
2789.52
6314.67
5120.71
5059.12
7639.75
7044.38
3330.18
2041.45
1795.8
1740.64
1700.18
1684.61
1678
1674.42
1671.24
1677.06
1680.41
1682.37
1682.86
1689.87
1706.47
1746.43
1804.12
2089.05
3232.2
6762.56
7645.59
5010.09
4829.08
6370.04
7176.76
8723.87
5156.27
2327.73
1898.58
1782.36
1747.83
1743.74
1740.67
1737.77
1742.5
1745.64
1748.72
1751.99
1757.8
1792.25
1940.96
2482.79
5618.54
8151.63
6954.28
6329.59
4833.05
4605.77
5520.15
6043.33
6984.31
6818.46
6714.78
3433.38
2378.36
2131.41
2037.1
1996.68
1981.66
1981.97
1986.58
1998.1
2029.98
2120.04
2387.22
3628.68
6895.73
6817.85
6703.46
5964.36
5486.37
4681.58
4295.18
4803.87
5115.01
5874.79
6055.58
6565.97
5576.34
5155.64
4844.28
4196.4
4270.92
4323.21
4367.27
4354.32
4293.06
4191.35
4744.47
5436.09
5661.85
6635.1
5997.21
5705.88
5070.27
4777.89
4365.54
3729.45
4042.8
4337.03
5061.29
5576.03
6483.52
7295.6
7566.13
6703.24
6251
6507.98
6742.32
6877.37
6823.26
6580.12
6563.34
6713.79
7553.34
7340.96
6458.84
5431.08
4898.25
4224.1
3960.17
3719.53
3065.16
3409.35
3950.36
4855.31
5498.85
6091.05
7047.51
7784.98
6542.77
5476.87
5209.28
5234.25
5303.47
5268.44
5267.76
5792.02
6525.58
7427.35
7021.83
6207.41
5530.77
4802.66
3860.2
3346.06
3027.2
2642.74
3172.78
3856.87
5058.49
5973.33
5774.01
6048.02
6766.64
6146.28
5181.93
4689.08
4543.93
4533.95
4586.7
4784.35
5323.35
5966.57
6452.33
6059.65
5958.67
6243.87
5084.64
3840.33
3155.28
2644.81
2528.12
3409.97
4086.5
5190.46
5768.24
5307.03
5229.37
5717.02
5580.32
4961.01
4419.85
4087.72
3975.32
4159.89
4550.73
5031.23
5360.31
5469.67
5260.49
5486.94
5950.04
5169.17
4094
3430.99
2521.63
5086.94
7655.57
6218.25
4827.42
5005.76
4652.56
4560.96
4965.42
5042.21
4631.23
4085.23
3652.92
3500.99
3762.99
4244.45
4674.87
4826.98
4770.06
4602.43
4809.48
5145.49
4957.44
6689.42
8201.22
5949.56
11578.3
23057.5
7829.09
4238.57
4309.53
4089.8
4037.12
4393.2
4544.61
4249.3
3728.5
3258.97
3090.17
3378.16
3883.58
4270.88
4339.87
4239.25
4069.21
4214.39
4409.55
4376.78
8413.99
23314.8
12722
13721.5
19407
6887.42
3779.39
3770.03
3634.79
3599.22
3925.12
4091.71
3856.89
3367.55
2907.63
2734.69
3010.11
3501.69
3865.29
3898.87
3795.78
3622.07
3720.27
3838.04
3889.93
6974.26
19113.5
13598.8
13042.9
19513.6
5822.48
3431.84
3334.04
3241.31
3226.98
3515.27
3680.5
3477.37
3017.92
2588.14
2433.75
2691.33
3154.77
3495.78
3506.71
3399.48
3251.01
3315.75
3401.97
3543.02
5996.3
20256.3
12997.3
12695
19096.2
5174.69
3161.61
3003
2917.52
2922.86
3167.63
3316.71
3134.35
2713.77
2319.95
2180.38
2415.24
2846.26
3159.94
3164.48
3060.77
2938.18
2982.07
3074.19
3269.36
5410.52
20441.4
12796
12427.7
19199.2
4717.66
2917.38
2738.73
2646.91
2670.62
2871.57
2996.17
2831.48
2452.61
2092.89
1965.45
2175.96
2568.81
2855.46
2862.67
2768.55
2667.43
2692.6
2804.76
3005.64
4909.33
20217
12732.8
12462.2
17798.8
4244.85
2695.9
2524.96
2422.91
2454.77
2614.67
2707.45
2550.96
2215.19
1896.95
1783.53
1976.3
2332.93
2590.1
2605.14
2523.76
2440.62
2458.66
2592.78
2787.17
4479.81
19042.6
12740.3
12334.1
16843.4
3920.63
2516.19
2350.64
2241.24
2271
2396.1
2461.59
2315.1
2016.86
1731.48
1628.07
1801.06
2121.06
2354.07
2378.43
2312.5
2247.26
2266.44
2407.38
2594.45
4155.32
18343.7
12584.8
12039
16424.6
3689.49
2361.7
2201.71
2096.26
2112.85
2206.05
2247.48
2108.55
1845.65
1590.27
1494.17
1649
1932.17
2140.03
2177.77
2129.37
2080.85
2105.2
2243.02
2426.46
3847.38
16874.3
12477.7
11779.5
15335.1
3490.42
2230.41
2064.26
1970.28
1977.95
2038.03
2053.66
1920.82
1689.04
1464.19
1378.63
1521.17
1777.52
1964.01
2006.44
1972.76
1942.16
1971.34
2097.68
2289.35
3651.71
16029.2
12221.1
11396
14095.4
3332.01
2127.44
1943.18
1858.11
1859.93
1893.7
1889.96
1762.89
1558.63
1357.36
1278
1407.15
1635.06
1801.19
1853.43
1836.93
1823
1852.31
1962.61
2172.11
3448.1
14652.8
11925.2
11067
13359.5
3217.69
2051.05
1835.86
1755.14
1754.04
1768.97
1749.72
1629.22
1446.34
1263.8
1190.75
1306.51
1512.34
1663.74
1720.31
1718.03
1716.27
1743.86
1845.16
2081.28
3281.49
13378
11592.1
10786.8
12160.5
3092.72
1991.99
1743.79
1664.57
1655.22
1656.11
1621.32
1505.75
1343.38
1180.6
1114.11
1221.54
1407.94
1544.22
1605.07
1614.76
1618.88
1649.01
1747.34
2011.62
3166.19
12569.2
11217.5
10481.3
11240.8
2975.24
1950.89
1669.36
1583.93
1563.06
1556.89
1512.23
1402.7
1256.53
1107.82
1046.81
1143.38
1313.39
1438.36
1500.95
1521.04
1529.18
1563.89
1666.14
1957.32
3060.45
11623.1
10847.4
10194
10566.1
2849.86
1914.54
1619.49
1510.94
1481
1466.55
1415.94
1311.05
1179.52
1043.97
987.232
1075.38
1229.29
1343.85
1408.72
1435.8
1448.82
1492.28
1608.27
1920.43
2936.02
10854.1
10523.7
9917.32
9851.74
2725.66
1882.08
1584.84
1447.49
1405.96
1382.52
1328.3
1229.17
1109.09
985.324
934.301
1015.4
1158.58
1264.08
1327.11
1357.49
1377.76
1428.02
1571.34
1890.6
2823.19
10321
10239.6
9664.84
9374.83
2623.04
1876.54
1563.87
1395.24
1340.2
1307.43
1250.36
1157.36
1047.91
934.403
886.887
961.206
1091.76
1189.11
1251.8
1286.04
1312.63
1373.17
1546.1
1879.81
2696.23
9615.97
9962.96
9398.23
9145.1
2529.08
1868.79
1553.06
1358.58
1280.49
1239.88
1180.8
1094.37
993.911
888.024
844.436
912.136
1033.71
1123.58
1183.01
1221.84
1254.04
1334.68
1536.98
1872.25
2567.55
9129.74
9726.16
9103.75
8744.04
2412.61
1830
1557.85
1334.12
1229.58
1179.07
1116.67
1035.04
942.831
845.978
806.269
869.474
982.049
1064.97
1122.97
1165.24
1203.95
1308.14
1541.28
1839.96
2454.34
8894.85
9485.83
8836.74
8499.06
2304.41
1780.97
1576.57
1321.14
1190.1
1126.39
1060.87
983.846
898.762
808.192
771.575
829.093
934.625
1011.4
1067.29
1115.41
1165.99
1293.62
1550.24
1782.59
2346.03
8676.93
9200.06
8624.76
8308.55
2238.9
1729.92
1611.46
1319.42
1162.08
1083.09
1011.92
937.438
858.23
773.975
740.034
792.903
890.666
963.181
1019.22
1073.73
1140.11
1289.85
1595.93
1731.07
2264.6
8594.87
8894.33
8431.83
8097.75
2151.1
1662.52
1606.79
1328.73
1141.39
1050.68
969.463
895.291
820.847
741.942
711.09
760.336
853.135
921.056
977.784
1041.44
1119.72
1303.22
1611.99
1685.38
2326.68
8406.25
8619.71
8250.59
7933.64
2090.89
1593.06
1566.62
1363.33
1131.15
1026.46
935.511
858.704
787.438
713.27
684.543
730.054
816.973
882.652
943.008
1017.91
1108.68
1330.78
1575.07
1619.05
2234.84
8204.79
8400.06
8097.83
7770.8
2136.7
1531.56
1510.16
1417.93
1136.91
1006.86
910.574
828.44
758.105
686.809
660.039
702.292
784.681
849.275
915.78
1000.33
1114.56
1396.6
1524.36
1554.26
2198.76
8001.51
8229.6
7949.18
7623.05
2075.39
1469.4
1444.96
1429.75
1170.64
995.664
889.941
804.088
731.934
662.935
637.559
677.774
757.968
823.35
895.667
990.62
1152.33
1422.51
1465.86
1501.61
2227.99
7838.91
8102.26
7802.11
7447.81
2118.73
1426.04
1379.39
1383.17
1247.7
1002.83
875.485
786.794
712.101
643.141
617.64
656.711
735.611
803.782
879.506
994.096
1220.07
1382.55
1400.89
1445.07
2200.18
7683.48
7980.89
7655.11
7283.9
2176.2
1398.54
1322.83
1330.6
1278.27
1053.33
867.763
771.566
697.507
628.37
601.787
640.141
719.004
788.433
869.259
1036.16
1267.18
1332.51
1339.79
1405.72
2218.39
7507.21
7839.17
7439.53
7087.48
2160.24
1368.65
1273.09
1273.18
1240.51
1133.14
882.647
759.591
685.152
617.02
590.734
628.121
706.142
776.472
881.017
1116.66
1245.73
1277.22
1289.42
1392.16
2288.41
7255.4
7620.87
7157.49
6839.18
2157.69
1350.3
1229.64
1216.67
1197.76
1177.15
938.282
756.713
675.839
607.63
581.797
618.061
695.354
770.65
927.904
1178.49
1204.82
1219.94
1244.94
1376.45
2251.77
6957.6
7328.52
6517.25
6377.68
2144.27
1335.17
1193.59
1166.96
1152.09
1148.32
1030.17
784.922
672.011
599.946
573.626
609.68
688.713
790.341
1020.24
1165.63
1161.53
1169.89
1205.71
1357.13
2194.03
6473.91
6670.34
5896.11
9107.27
9180.96
8079.22
6795.77
5808.32
5167.22
4749.02
4448.97
4185.71
3912.28
3616.55
3289.95
2928.16
2550.39
2168.48
1802.34
1466.26
1172.94
932.329
737.63
589.254
481.006
403
346.554
305.651
274.501
252.563
248.419
341.542
6087.67
9631.12
9612.8
8435.41
7119.92
6123.11
5479.66
5066.71
4773.93
4519.86
4259.11
3974.04
3650.02
3284.99
2896.11
2491.32
2091.27
1712
1370.88
1083.95
846.176
662.024
525.599
427.892
358.897
311.327
277.075
254.133
251.724
345.077
6421.65
10155.1
10051.7
8829.16
7492.43
6482.78
5828.85
5415.72
5126.73
4882.11
4634.99
4361.52
4039.93
3674.24
3275.82
2850.34
2417.75
1995.4
1604.27
1265.73
979.013
752.463
582.343
460.13
375.034
318.171
279.487
255.153
254.294
348.469
6681.99
10693.3
10609.6
9362.72
7999.49
6955.34
6273.68
5847.31
5555.74
5315.26
5076.47
4807.41
4485.13
4117.76
3707.93
3261.99
2797.94
2332.52
1889.88
1493.13
1149.33
872.117
660.267
505.945
399.256
329.32
283.78
257.262
257.236
352.595
6870.37
11236.7
11241.7
9985.46
8593.89
7505.87
6784.01
6333.8
6030.02
5787.33
5552.61
5285.78
4965.36
4596.57
4176.9
3713.57
3222.58
2718.38
2224.68
1765.44
1360.46
1024.75
761.989
567.675
432.979
345.49
290.519
260.264
259.936
357.068
7063.61
11820
11912
10655.5
9241.71
8112.85
7346.65
6868.99
6553.34
6305.64
6070.01
5804.34
5483.94
5110.01
4678.35
4197.86
3681.06
3140.34
2599.19
2081.84
1614.79
1214.41
892.074
649.189
478.891
368.33
300.442
264.534
263.108
362.381
7288.88
12424.7
12610.2
11368
9939.08
8771.8
7962.34
7456.77
7127.18
6867.54
6626.3
6355.4
6029.32
5645.17
5198.55
4700.67
4159.09
3586.6
3006.32
2439.35
1910.17
1442.6
1054.13
754.089
539.777
399.455
314.336
270.224
266.666
367.916
7531.48
13039.6
13335.7
12123.1
10689.8
9488.03
8639.96
8106.41
7753.3
7477.26
7225.03
6940.16
6599.18
6197.24
5732.26
5216.45
4654.17
4058.92
3447.77
2835.35
2247.73
1712.83
1253.55
887.656
620.024
441.809
333.83
278.25
270.427
372.932
7769.33
13647.4
14092.7
12924.7
11496.7
10267.9
9386.34
8824.42
8437.27
8137.93
7864.24
7552.33
7182.14
6752.83
6270.65
5743.46
5168.97
4558.73
3921.75
3268.95
2627.4
2026.79
1493.84
1055.03
724.275
498.565
360.648
288.506
274.212
378.206
7972.91
14258
14876.6
13768.3
12357.7
11113.1
10203.6
9608.13
9189.5
8854.45
8544.39
8187.91
7777.72
7326.07
6838.22
6302.19
5715.27
5088.27
4425.22
3738.35
3050.18
2386.72
1779.84
1261.74
857.727
574.008
397.317
303.193
279.375
384.147
8144.82
14866.9
15666.8
14642.3
13265.9
12020.9
11092.2
10461.3
10009.3
9634.43
9265.02
8849.48
8409.29
7949.09
7454.68
6897.63
6290.96
5641.66
4951.95
4233.68
3504.62
2787.17
2110.52
1511.57
1026.21
673
447.22
324.326
286.669
389.698
8307.4
15463
16444.2
15530.8
14210.7
12985.6
12050.2
11389.4
10900.2
10472.7
10030.3
9569.78
9115.83
8637.25
8114.69
7529.35
6896.84
6220.55
5500.65
4748.94
3979.46
3214.12
2476.87
1801.92
1232.17
799.465
512.845
352.284
296.611
395.525
8472.45
16020.9
17209.4
16421
15181.1
14000.2
13075.4
12393.7
11861.9
11370.6
10863.1
10379.7
9900.8
9388.03
8823.2
8202.86
7537.19
6826.61
6071.18
5282.29
4473.45
3658.98
2864.72
2122.07
1471.87
953.852
595.929
388.576
309.441
401.93
8602.27
16557.6
17945.9
17308.3
16172.7
15055.9
14161.8
13472.3
12897.4
12338.4
11788.3
11280.8
10764.4
10204
9588.52
8924.71
8218
7466.49
6670.35
5840.5
4988.31
4129.19
3281.33
2472.75
1743.72
1138.09
699.146
435.049
325.234
408.735
8788.12
17008
18637.7
18172.4
17171
16142.5
15299.5
14621.4
14010
13394.5
12811.5
12274.1
11710.2
11093.1
10418.9
9702.99
8948.11
8149.22
7307.08
6431.99
5533.85
4626.36
3726.75
2857.6
2053.07
1358.06
828.599
495.895
345.293
415.475
8875.57
17410.9
19264.2
18994.1
18154.6
17246.2
16481.1
15837
15204
14542.5
13936.8
13365.6
12745.3
12065.1
11325.3
10548.6
9738.4
8885.77
7992.35
7067.31
6119.11
5160.16
4205.36
3273.57
2396.66
1612.67
990.261
575.945
372.269
422.646
8973.88
17715.5
19765.2
19740.4
19086.9
18342.9
17696.2
17116
16478.2
15789.9
15167.6
14556.8
13876.6
13127.8
12316.3
11470.6
10597
9683.44
8732.39
7751.53
6747.88
5731.86
4717.25
3720.05
2771.03
1903.63
1187
679.121
409.06
430.999
9020.11
17971.6
20174.2
20377.3
19949.3
19408.2
18933.7
18451.7
17834.9
17141.6
16507.3
15854.4
15111.5
14291.1
13401.8
12479.9
11533.5
10550.3
9533.71
8489.84
7424.13
6345.37
5264.43
4196.95
3175.1
2231.51
1421.07
809.906
459.66
442.1
9068.12
18084.2
20428.7
20851.3
20692.7
20415.8
20178.1
19837.4
19271.5
18598.8
17960.2
17266.9
16458.1
15563.8
14591.8
13586
12556.7
11493.3
10400.8
9284.36
8147.75
6999
5847.09
4708.94
3616.56
2598.71
1692.48
971.997
528.341
456.223
9057.51
18152.6
20545.1
21153.9
21298.4
21349.5
21411
21263.8
20787
20162.4
19529.4
18797.3
17923.2
16953.5
15895.4
14797.8
13675
12519.1
11337.4
10136.5
8918.7
7692.78
6468.18
5261.81
4098.59
3001.98
1999.49
1167.47
618.07
474.329
9063.79
18080.5
20456.1
21246.9
21728.8
22189.5
22615.9
22722.2
22379
21831.7
21217.6
20451.6
19514.2
18468.9
17322.8
16125.9
14897.7
13636.1
12350.1
11051.4
9742.55
8433.69
7133.78
5855.64
4616.31
3433.3
2334.25
1394.4
730.53
499.141
9041.2
17988.2
20167.1
21125.9
21988.8
22915
23779.5
24200.1
24041.6
23603.7
23026.6
22235.8
21240.2
20119
18883.5
17579.1
16235.1
14852.1
13446.7
12035.2
10624.1
9224.05
7842.07
6484.5
5161.03
3887.39
2695.07
1654.95
869.108
531.816
9106.51
17763
19692.6
20819.6
22087.4
23548.7
24904.1
25687.7
25766.1
25474.2
24958
24155.9
23110
21912.6
20586.7
19168.6
17696.5
16176.4
14634
13093.6
11566.4
10063.1
8588.38
7142.35
5729.95
4367.82
3089.95
1952.98
1040.07
573.945
8968.1
17718.8
19233
20483.6
22141.9
24124.3
25992.2
27176.3
27542.5
27439.4
27013.8
26218.5
25133.4
23861.5
22439.6
20899.8
19287.1
17612.8
15914.3
14228.7
12569.4
10950.6
9371.89
7830.67
6329.87
4884.21
3525.66
2288.98
1247.9
628.121
8643.3
19470.6
19633.3
20538.1
22322
24707.5
27048.9
28652.6
29364.7
29494.9
29194.6
28429.4
27318.5
25974.2
24447.6
22774.4
21002.8
19150.2
17276.1
15429
13625
11878.1
10187.6
8548.2
6961.53
5436.08
3993.68
2656.43
1489.95
696.816
340.004
247.328
253.25
276.81
307.801
347.206
399.416
473.475
579.408
722.458
910.942
1149.05
1441.98
1779.52
2147.54
2531.29
2911.04
3274.97
3605.63
3904.72
4181.36
4449.65
4755.18
5177.75
5826.89
6825.95
8121.52
9212.68
9090.83
5893.81
344.21
251.02
255.322
279.34
312.741
358.54
422.391
514.277
646.996
824.728
1054.26
1337.29
1680.01
2061.6
2467.08
2877.33
3271.62
3640.11
3968.98
4257.87
4520.57
4778.37
5074.29
5489.29
6138.07
7146.45
8473.59
9641.17
9608.12
6086.01
347.493
253.629
256.191
280.969
318.084
372.381
450.709
564.979
728.567
948.303
1226.28
1559.19
1953.01
2378.45
2819.28
3253.18
3660.17
4031.49
4358.83
4637.45
4885.49
5133.43
5423.8
5836.7
6492.57
7515.17
8862.11
10077.9
10137.9
6420.06
352.101
256.701
258.293
284.6
327.245
392.627
490.176
634.021
836.343
1105.82
1441.43
1833.25
2278.86
2747.77
3221.04
3677.18
4097.65
4472.57
4801.55
5077.6
5318.67
5562.48
5854.95
6278.91
6960.67
8016.3
9390.31
10628.8
10676.9
6683.63
356.755
259.693
261.089
290.279
340.577
420.567
543.061
723.623
973.444
1299.68
1698.33
2153.68
2648.77
3159
3659.6
4134.1
4566.13
4944.12
5273.33
5548.23
5788.54
6035.19
6338.12
6784.42
7505.34
8605.21
10009.8
11254.7
11218.2
6867.84
361.774
262.891
264.806
298.571
359.459
458.775
612.814
838.167
1143.71
1532.06
1994.48
2508
3048.74
3596.92
4124.83
4617.16
5062.5
5447.21
5778.65
6055.14
6297.45
6552.34
6869.1
7341.22
8104.89
9246.12
10673.9
11918.6
11795.3
7059.51
366.672
266.055
269.32
309.816
384.822
509.549
702.798
980.969
1349.05
1802.53
2326.1
2890.68
3468.61
4043.37
4595.8
5105.37
5566.89
5965.56
6306.21
6592.09
6843.23
7112.67
7449.8
7949.89
8755.89
9935.35
11377.9
12612.1
12398
7283.81
371.551
269.366
275.321
325.368
419.473
576.76
817.952
1157.82
1594.03
2112.7
2691.48
3301.4
3910.49
4503.22
5069.91
5594.53
6074.17
6495.46
6855.22
7161.65
7430.8
7719.15
8087.13
8618.56
9466.89
10679.5
12126.4
13334.5
13016.2
7522.76
376.585
273.198
283.795
346.586
466.166
664.606
963.31
1372.23
1879.05
2461.46
3090.13
3738.44
4375.96
4986.29
5562.36
6094.7
6586.63
7034.37
7426.3
7764.51
8063.01
8380.84
8783.46
9351.49
10240.2
11478.1
12917.7
14082.5
13627.1
7768.92
381.952
278.109
295.991
376.238
528.7
778.781
1145.6
1629.49
2208.03
2850.63
3524.1
4205.76
4869.84
5500.24
6093.7
6638.66
7134.49
7598.58
8027
8412.7
8751.8
9108.1
9545.85
10153.6
11078.5
12332.1
13753.6
14858.3
14234
7981.14
387.747
284.637
312.839
417.008
612.028
924.671
1369
1931.8
2579.59
3277.7
3991.84
4703.67
5392.86
6046.05
6661.77
7233.05
7741.01
8216.81
8673.63
9113.54
9508.53
9908.84
10380
11026.1
11978.1
13233.8
14622.8
15646.7
14842.1
8157.62
393.77
292.813
335.283
471.318
720.027
1106.01
1633.55
2274.57
2986.97
3733.58
4487.88
5231.05
5948.49
6628.51
7270.19
7873.11
8413.69
8913.16
9389.84
9872.83
10336.4
10784.6
11292.5
11969.4
12933.1
14173.1
15507.9
16425.6
15441.3
8326.22
399.806
302.3
363.965
540.623
854.266
1322.58
1933.35
2646.21
3415.31
4209.38
5006.14
5786.36
6538.36
7251.92
7926.76
8566.11
9152.37
9687.5
10194.5
10706.2
11233.9
11739.1
12287.4
12985.1
13940.5
15140.3
16396.6
17189.5
16012.6
8487.58
405.753
313.741
401.048
627.742
1017.49
1573.49
2263.71
3042.23
3867.92
4711.26
5552.42
6374.63
7167.22
7920.96
8635.75
9318.76
9957.75
10540.8
11088.1
11628.7
12203.4
12773.5
13362.1
14067.2
14991.1
16124.9
17280.4
17933.1
16555.5
8641.95
411.825
329.222
450.529
739.082
1213.73
1860.43
2628.57
3472.37
4353.75
5246.44
6135.89
7004.89
7843.51
8643.69
9404.97
10137.8
10837.2
11477.7
12073.8
12648.5
13260.7
13886.7
14510.5
15208
16075.5
17119.7
18144.3
18633.1
17033.4
8822.47
418.149
350.664
516.784
879.995
1446.05
2183.75
3028.51
3936.72
4875.45
5823.99
6765.65
7686.12
8576.06
9428.68
10243.4
11033.1
11799.3
12504.2
13157.3
13770
14410.8
15084.9
15728.3
16397.6
17184
18105.2
18971.9
19271.8
17448.3
8929.91
425.352
379.935
603.052
1054.06
1716.07
2540.23
3460.88
4438.19
5440.26
6448.66
7447.6
8424.51
9371.3
10282.8
11158
12013.1
12851.4
13627.4
14340.5
14995.5
15657.9
16363.4
17014.8
17624.6
18293.6
19050.8
19731.9
19799.4
17773.5
9046.17
434.225
420.458
714.091
1265.06
2025.53
2932.55
3929.52
4979.3
6049.58
7123.28
8185.2
9224.61
10235.1
11213.4
12157.9
13086.5
14002
14855.1
15629.9
16330.3
17008.2
17723.9
18361
18878.3
19378.8
19930.5
20389.7
20232.7
18051.3
9102.14
445.516
476.184
854.531
1514.3
2375.83
3364.46
4437.03
5560.07
6703.53
7847.84
8979.52
10089.3
11172.7
12228
13252.3
14262.6
15261.1
16192.3
17033.4
17778.5
18465.1
19165.4
19758.1
20145.6
20414.2
20703.1
20887.2
20510.8
18188.8
9159.43
460.305
550.052
1026.53
1800.18
2763.79
3838.03
4988.16
6185.2
7403.23
8622.57
9831.55
11021.5
12189.6
13334.2
14449.7
15550.2
16636.1
17644.9
18554.9
19343.6
20029.6
20685.5
21197.4
21408.7
21379.6
21341.8
21227.1
20648.7
18281.3
9160.46
480.038
644.218
1231.09
2117.17
3184.04
4350.78
5582.32
6854.94
8148.36
9447.15
10742.4
12024.7
13292.4
14540.2
15759.1
16958.5
18135.6
19221.7
20197.9
21027.1
21701.6
22283.4
22671.4
22650.7
22258.1
21811.7
21347.5
20586.6
18235.8
9177.74
506.091
762.243
1469.38
2464.35
3631.46
4894.23
6212.04
7564.44
8938.03
10323.9
11716.4
13106.1
14489.9
15856.2
17191.4
18500.8
19768.5
20933.5
21971.5
22834.2
23481.4
23956.8
24169.6
23857.1
23026.2
22093.8
21251.5
20322.7
18170.5
9164.64
540.396
911.567
1748.31
2846.65
4105.16
5460.52
6867.36
8306.88
9770.37
11255.4
12759.3
14273.6
15791.1
17293.3
18758
20185.5
21545.5
22789.5
23882.4
24767.6
25365.9
25699.5
25685.7
25030.9
23708.2
22231.5
20964.9
19865.8
17969.3
9241.97
585.531
1097.86
2069.79
3272.24
4615.68
6054.32
7548.94
9081.6
10646.3
12244.6
13875.7
15532.1
17201.2
18857
20463
22018.3
23477.3
24799.2
25937.3
26829.3
27351.8
27504
27214.5
26178.1
24336.4
22322.6
20640.5
19407.9
17929.5
9119.94
644.112
1320.91
2428.08
3734.77
5162.7
6680.56
8260.23
9888.68
11562
13285.2
15059.9
16874.9
18714.4
20545
22311
24004.9
25573.5
26973.1
28144.7
29022.6
29439.6
29368.2
28748.2
27300.7
24981.6
22534.2
20700.7
19777.7
19576.6
8800.59
28513.6
29428.3
30183.7
31034.5
31856.4
32711
33544.2
34398.1
35241.3
36101.3
36959.1
37832.5
38715.2
39618
40540.5
41490.4
42449
43410.6
44397.8
45425.2
46468.5
47497.6
48523.1
49553.2
50573.5
51571
52552
53512.7
54440.7
55330
56185
57021.1
57829.4
58601.4
59335.4
60031
60685.3
61293.8
61850.6
62348.6
62779.2
63132.8
63400
63572.3
63643.2
63610
63471.5
63235.9
62917.6
62504.6
62082.6
61685.1
61290.6
60855.2
60367.1
59804
59115.5
58399.7
57617.5
56732
55721.9
54633.5
53468.6
52212.3
50857
49422
47921.5
46361.9
44748.8
43096
41419.2
39730.1
38035
36353.1
34692
33081.3
31527.5
30019.5
28561
27151.6
25789.8
24476.6
23214
21999.7
20831.3
19708.8
18630.9
17590.4
16585.3
15617.8
14683.2
13777.9
12905.9
12074.5
11280.5
10519.2
9786.69
9081.34
8402.94
7755.33
7140.63
6560.76
6018.12
5514.56
5051.31
4629.29
4247.28
3903
3592.69
3312.13
3056.47
2820.51
2600.55
2393.17
2195.78
2006.45
1823.57
1647.55
1478.99
1319.2
1170.22
1034.19
912.779
806.965
717.559
66321.8
68157.1
69971.5
71946.5
73940.8
75978.7
78036.8
80127.6
82242.3
84388.2
86559.4
88757.9
90980.2
93224.7
95488.4
97768.4
100093
102464
104881
107335
109809
112293
114785
117271
119735
122163
124543
126871
129147
131382
133574
135705
137763
139746
141653
143482
145223
146866
148396
149794
151041
152117
153001
153679
154138
154375
154389
154192
153792
153212
152487
151580
150519
149328
147989
146480
144808
142836
140680
138275
135622
132747
129666
126357
122829
119118
115254
111249
107127
102925
98678.5
94415.9
90161.3
85942.5
81783.2
77674.4
73628.9
69680.9
65885.9
62232.7
58727.2
55376.5
52179.4
49129.6
46220.1
43444.9
40792.5
38251.5
35819.5
33492.5
31259
29119.5
27091.4
25179.5
23367.9
21638.9
19978.4
18393.2
16894.7
15492.2
14189
12988.6
11893
10901.5
10013.8
9227.37
8535.15
7926.87
7391.1
6914.49
6483.17
6083.88
5706.61
5342.84
4985.01
4628.96
4273.33
3914.97
3553.24
3192.63
2838.41
2495.27
2167.29
1859.52
1575.53
89888.5
92161.2
94507.3
97047.8
99671.5
102356
105086
107863
110684
113547
116449
119388
122357
125352
128371
131416
134498
137655
140877
144148
147447
150762
154085
157403
160684
163909
167074
170183
173242
176244
179175
182029
184802
187495
190106
192628
195050
197354
199520
201522
203336
204935
206295
207396
208225
208773
209041
209035
208768
208257
207517
206541
205351
203950
202329
200470
198322
195834
193028
189884
186407
182480
178297
173791
168979
163895
158601
153097
147418
141622
135768
129893
124034
118234
112523
106922
101452
96125.3
90940.3
85937.1
81153.2
76600.6
72265.1
68137.5
64205.3
60454
56869.6
53440.1
50156.3
47009.7
43992.9
41105
38350.7
35726.9
33223.9
30833
28549
26377.6
24325.7
22402.1
20607.8
18949.3
17424.4
16033.8
14775.6
13646.3
12636.7
11736.3
10933.7
10215.1
9565.99
8970.7
8416.75
7893.43
7390.56
6901.21
6422.17
5948.04
5474.43
5001.4
4534.34
4078.93
3639.5
3217.5
2811.74
110179
112823
115614
118630
121782
125019
128324
131692
135116
138592
142112
145670
149259
152875
156515
160190
163912
167689
171550
175475
179443
183435
187434
191414
195337
199188
202970
206688
210341
213913
217401
220811
224148
227413
230601
233704
236706
239586
242318
244876
247230
249351
251205
252771
254036
254987
255617
255932
255935
255635
255044
254168
253019
251595
249878
247833
245410
242573
239316
235632
231501
226904
221894
216479
210670
204355
197838
191045
184010
176800
169526
162212
154905
147666
140540
133561
126763
120184
113846
107754
101901
96286.2
90928.6
85851.4
81028.2
76432.6
72047.1
67851.1
63829.7
59971.2
56267.8
52715.7
49312.8
46055.4
42937.7
39956
37112.2
34411.2
31859
29460.9
27218.1
25132.9
23204.1
21430.7
19810.5
18336.3
17002.2
15796.1
14707.4
13721.5
12825.5
12004.9
11246.7
10539.5
9871.83
9234.87
8623.57
8030.97
7448.78
6874.36
6309.27
5759.43
5230.19
4719.36
4219.73
129089
132095
135271
138714
142337
146063
149872
153752
157690
161677
165700
169750
173823
177919
182043
186211
190435
194725
199073
203486
207945
212425
216896
221320
225661
229906
234058
238128
242105
245980
249772
253499
257166
260777
264325
267798
271182
274452
277583
280548
283316
285847
288100
290057
291711
293048
294053
294726
295064
295070
294757
294137
293210
291964
290367
288373
285927
282986
279535
275571
271084
266078
260580
254608
248157
241232
233914
226224
218185
209734
201295
192796
184267
175779
167417
159210
151213
143502
136109
129046
122313
115904
109791
103935
98325
92953.5
87836
82931.9
78217.6
73683
69316.1
65112.4
61070.7
57188.5
53464.6
49900
46498.7
43266.1
40206.6
37323.2
34616.7
32086.9
29731.9
27549.6
25534.7
23682.6
21986.6
20433.6
19013.7
17713.3
16522
15426.9
14415.2
13476.9
12600.9
11777.7
11000.3
10260.2
9547.39
8856.28
8183.74
7534.49
6914.04
6317.98
5733.72
146715
150044
153536
157340
161342
165449
169637
173883
178170
182480
186803
191132
195468
199820
204204
208638
213134
217698
222321
226979
231644
236287
240871
245361
249726
253949
258035
262006
265853
269587
273246
276855
280421
283947
287428
290856
294221
297498
300658
303675
306512
309108
311420
313464
315260
316785
318028
318991
319672
320071
320206
320077
319646
318867
317693
316078
313979
311337
308145
304405
300110
295260
289866
283940
277485
270512
263054
255135
246773
238041
229105
220006
210730
201291
192050
182946
174053
165495
157329
149562
142195
135221
128609
122306
116263
110433
104754
99223.5
93844.2
88655.7
83638.2
78785.3
74102.3
69588.1
65245.9
61081.5
57100.5
53309.2
49711.8
46310.5
43105.3
40094.8
37276.3
34644.9
32194.5
29918.5
27809.9
25857.1
24051.6
22383.7
20839.3
19412.1
18088.5
16862.5
15722.4
14659.8
13666.2
12732.8
11848.6
11005.2
10196.1
9424.05
8694.12
8001.42
7331.72
162559
166131
169816
173852
178064
182355
186695
191052
195405
199738
204044
208325
212592
216861
221155
225491
229883
234326
238799
243264
247677
251978
256152
260140
263912
267462
270813
273989
277002
279905
282738
285531
288299
291050
293790
296518
299228
301885
304451
306908
309215
311275
313072
314704
316227
317593
318850
320001
321026
321928
322724
323354
323705
323711
323340
322576
321364
319637
317423
314684
311410
307600
303262
298396
292981
287003
280454
273338
265671
257537
249064
240310
231254
221981
212650
203319
194047
185070
176616
168605
161031
153898
147155
140718
134513
128476
122555
116717
110947
105216
99558.6
94014
88660.9
83483.5
78489.1
73689.6
69090.9
64700.9
60524.4
56562.9
52815.4
49278
45946
42813.9
39875.6
37124.5
34552
32148.1
29903.4
27809.5
25856.8
24040.9
22349
20777.4
19313.5
17953.8
16688.3
15509
14404.8
13363.9
12378.1
11448.7
10580
9767.7
8998.21
175808
179482
183154
187192
191332
195490
199628
203712
207724
211657
215512
219301
223038
226747
230451
234162
237878
241571
245209
248761
252195
255465
258506
261234
263601
265624
267344
268790
270042
271185
272269
273329
274393
275481
276607
277781
278990
280180
281311
282402
283414
284144
284597
284967
285463
286128
287039
288067
289205
290546
292103
293634
294978
296151
297212
298099
298736
299023
298836
298061
296856
295240
293230
290790
287855
284379
280307
275603
270229
264211
257601
250430
242730
234644
226303
217830
209312
200901
192921
185360
178179
171439
165099
158987
152991
147032
141072
135081
129056
123006
116962
110950
104958
99060.2
93323.3
87821
82542.9
77496.2
72682.5
68099.8
63747.3
59621.5
55718.1
52031.2
48553.5
45274.9
42186
39278.4
36544.7
33977
31568.2
29311.7
27200
25228.8
23392.7
21683.7
20094.2
18617.6
17243.7
15958.5
14753.5
13628.2
12585.9
11623.5
10729.7
185476
189036
192353
196028
199677
203253
206708
210016
213170
216173
219034
221763
224380
226906
229352
231706
233939
236021
237933