/*--------------------------------*- C++ -*----------------------------------*\
| =========                 |                                                 |
| \\      /  F ield         | OpenFOAM: The Open Source CFD Toolbox           |
|  \\    /   O peration     | Version:  2112                                  |
|   \\  /    A nd           | Website:  www.openfoam.com                      |
|    \\/     M anipulation  |                                                 |
\*---------------------------------------------------------------------------*/
FoamFile
{
    version     2.0;
    format      ascii;
    arch        "LSB;label=32;scalar=64";
    class       surfaceScalarField;
    location    "0.01089";
    object      phi;
}
// * * * * * * * * * * * * * * * * * * * * * * * * * * * * * * * * * * * * * //

dimensions      [1 0 -1 0 0 0 0];

oriented        oriented;

internalField   nonuniform List<scalar> 
27436
(
-0.533505
8.19285
-0.0933712
7.47166
-0.0850505
7.78724
-0.0710999
7.78684
-0.0650122
7.78857
-0.0486803
7.78122
-0.0404616
7.7894
-0.0362427
7.79199
-0.0247421
7.78706
-0.0138874
7.7875
-0.00730352
7.79021
0.00104247
7.7886
0.0141996
7.78372
0.0310337
7.7809
0.0462303
7.78226
0.0549145
7.78824
0.0580492
7.79261
0.0658328
7.78973
0.075321
7.78831
0.0895406
7.78252
0.0961688
7.78793
0.111691
7.78556
0.123584
7.78276
0.572336
7.46023
8.21352
-0.24717
8.44001
-0.0960727
7.32052
-0.0811544
7.77225
-0.0543395
7.75971
-0.058793
7.79319
-0.0606112
7.78334
-0.0371355
7.76606
-0.0271461
7.78055
-0.0194212
7.77881
-0.0112889
7.77954
7.82405e-05
7.77817
0.0151855
7.77347
0.015115
7.78378
0.0215836
7.77444
0.0210638
7.78279
0.0377062
7.77159
0.0465885
7.78372
0.0589791
7.77733
0.082351
7.76493
0.077691
7.78717
0.072187
7.79338
0.102905
7.75487
0.11402
7.77138
0.268362
7.3064
8.48884
-0.227208
8.66721
-0.140976
7.23434
-0.120255
7.75157
-0.106363
7.74565
-0.10471
7.79176
-0.105609
7.785
-0.0960003
7.75784
-0.0773349
7.76536
-0.0614404
7.76154
-0.0473311
7.76382
-0.0377322
7.77127
-0.0146758
7.75042
-0.012687
7.7816
-0.011446
7.77321
-0.00827978
7.77966
0.0127136
7.7506
0.0241178
7.77232
0.0472712
7.75424
0.0609488
7.75124
0.0594145
7.7887
0.0638992
7.78891
0.0786951
7.74001
0.100589
7.74916
0.191996
7.21722
8.68398
-0.169507
8.83675
-0.139336
7.20425
-0.13398
7.74622
-0.112877
7.72429
-0.114131
7.79317
-0.110218
7.78168
-0.0940964
7.744
-0.0746321
7.74889
-0.0569891
7.74292
-0.0415322
7.7466
-0.0270776
7.7572
-0.00668895
7.72971
0.00289253
7.7718
0.0048128
7.77129
0.0149467
7.76956
0.0353203
7.73026
0.0495145
7.75816
0.0696669
7.73413
0.0885434
7.73235
0.0942453
7.78301
0.0944865
7.78868
0.118981
7.71538
0.111584
7.75647
0.161866
7.16746
8.84071
-0.0735981
8.91039
-0.0364801
7.16722
-0.0925072
7.80235
-0.0629627
7.69456
-0.0705509
7.80063
-0.0695898
7.78104
-0.0575277
7.73367
-0.0397046
7.73294
-0.0239401
7.72698
-0.0119363
7.73299
0.000794452
7.74496
0.0173856
7.71266
0.0267184
7.76224
0.0275537
7.77042
0.0370337
7.7601
0.0543998
7.71294
0.064552
7.74804
0.0820426
7.71669
0.0969649
7.71743
0.101072
7.77891
0.0968894
7.79288
0.124878
7.68736
0.0903526
7.79091
0.0980012
7.15909
8.93117
0.118477
8.79196
0.0437021
7.24209
-0.0503407
7.89652
-0.013618
7.65784
-0.0333455
7.82022
-0.0370636
7.78489
-0.0300515
7.7284
-0.0165978
7.71749
-0.00498968
7.71447
0.00116606
7.7253
0.00817284
7.73763
0.0204262
7.70002
0.0256201
7.75684
0.0248962
7.77109
0.0296432
7.75538
0.0422028
7.70043
0.0464334
7.74385
0.0583577
7.70481
0.0683984
7.70738
0.0690631
7.77825
0.0524066
7.80957
0.0884757
7.65123
-0.0135241
7.893
-0.0202283
7.16558
8.90855
0.30451
8.48749
0.135929
7.41079
-0.00712241
8.03967
0.0208452
7.63004
-0.0250127
7.86609
-0.05134
7.81173
-0.0661822
7.74387
-0.072138
7.72186
-0.080081
7.72156
-0.0920671
7.73538
-0.109003
7.75224
-0.118627
7.70897
-0.130983
7.76911
-0.146367
7.78642
-0.158089
7.76713
-0.166367
7.70874
-0.184942
7.76246
-0.193028
7.71293
-0.208005
7.72236
-0.228703
7.79897
-0.262792
7.84372
-0.284683
7.67309
-0.354725
7.9633
-0.6578
7.46845
8.2509
0.873162
7.61432
0.521704
7.76238
0.409796
8.15178
0.330439
7.70978
0.26472
7.93168
0.222292
7.85383
0.190122
7.77557
0.168128
7.74193
0.145462
7.74398
0.117344
7.76203
0.0859477
7.77933
0.0622778
7.73189
0.0381605
7.79312
0.00667099
7.81785
-0.019267
7.79309
-0.0444948
7.73402
-0.0742809
7.79228
-0.100753
7.73944
-0.130721
7.75234
-0.167149
7.83542
-0.228213
7.90485
-0.278888
7.72375
-0.406329
8.09104
-0.693195
7.75517
7.5613
0.592813
7.02148
0.40984
7.94545
0.237113
8.32473
0.186224
7.76128
0.125426
7.99325
0.0919633
7.88711
0.0813543
7.78445
0.0816643
7.73964
0.0830804
7.74286
0.0792422
7.76559
0.073967
7.77832
0.0722775
7.73229
0.0770762
7.78827
0.0767443
7.8181
0.076891
7.79298
0.0722354
7.73873
0.0674749
7.79708
0.0629468
7.74399
0.0561413
7.75916
0.0293091
7.86232
-0.0267243
7.96101
-0.0466145
7.74376
-0.219413
8.26432
-0.372145
7.90838
7.19321
-3.05199
10.0732
-3.3928
8.28639
-2.76524
7.69768
-2.6216
7.61783
-2.30669
7.67774
-1.9502
7.52874
-1.6628
7.49477
-1.37363
7.44936
-1.08049
7.45025
-0.779982
7.46539
-0.493559
7.48634
-0.207948
7.44569
0.0975402
7.48266
0.40376
7.51175
0.694765
7.50197
0.965979
7.46758
1.26547
7.49764
1.54256
7.4669
1.83573
7.46601
2.19645
7.50165
2.50189
7.65569
2.65987
7.58587
3.23496
7.68968
2.95134
8.19266
10.1449
-4.25935
14.3321
-4.36531
8.39334
-4.19392
7.52709
-3.89792
7.32149
-3.32797
7.10614
-2.81614
7.01404
-2.35566
7.03194
-1.91135
7.00561
-1.46828
7.00871
-1.01724
7.01481
-0.562734
7.02936
-0.12074
7.00327
0.340279
7.02131
0.811903
7.03991
1.25855
7.05518
1.677
7.04913
2.13227
7.04239
2.5714
7.02777
3.02625
7.01115
3.57758
6.95032
4.13451
7.09879
4.44438
7.27618
4.61512
7.51907
4.56516
8.24338
14.7081
-2.7583
17.0901
-4.86057
10.4951
-4.98124
7.64879
-4.14927
6.48902
-3.64013
6.59474
-3.18597
6.55587
-2.68775
6.53122
-2.20341
6.5231
-1.71451
6.52204
-1.22308
6.52437
-0.724901
6.53164
-0.243889
6.52246
0.258193
6.51856
0.762226
6.53548
1.25983
6.55735
1.71814
6.59076
2.20536
6.5552
2.69701
6.53616
3.19292
6.51522
3.6682
6.47502
4.24919
6.51771
5.09958
6.42585
4.72237
7.89628
2.7796
10.186
17.4867
2.36443
14.7256
0.149966
12.7078
-5.02279
12.8222
-3.90315
5.36832
-3.81
6.49814
-3.3001
6.04178
-2.8587
6.08865
-2.36338
6.03062
-1.8458
6.00693
-1.33069
6.01026
-0.812739
6.01514
-0.307228
6.01759
0.211988
5.99841
0.740579
6.00626
1.26516
6.03255
1.78916
6.06672
2.28001
6.06435
2.75917
6.057
3.20011
6.07428
3.76025
5.91485
3.97368
6.30417
5.11008
5.28904
-0.179651
13.1857
-2.3982
12.4042
15.0886
2.45049
12.2751
3.51927
11.6376
3.42114
12.9166
-0.838137
9.62772
-3.61797
9.2767
-3.19314
5.61214
-2.96243
5.85731
-2.4704
5.54209
-1.94979
5.48838
-1.47022
5.53122
-0.979193
5.52511
-0.473827
5.51255
0.0259055
5.49742
0.529691
5.50148
1.03239
5.52948
1.5299
5.56922
2.03108
5.56322
2.48504
5.60304
2.61221
5.94701
2.98365
5.54319
-0.0889125
9.37673
-4.15399
9.35466
-3.87727
12.9082
-2.95593
11.4821
12.1325
1.87665
10.3972
3.87232
9.64096
5.77874
11.008
4.9583
10.4472
4.07349
10.1641
-1.20352
10.9007
-2.37725
7.03549
-2.04921
5.21462
-1.63319
5.07279
-1.14057
5.03814
-0.604989
4.9893
-0.0640896
4.9713
0.469134
4.96288
1.00183
4.9675
1.54186
4.98895
2.05345
5.05787
2.44821
5.16887
2.79998
5.25111
1.50992
7.23689
-3.6634
10.7171
-4.23808
9.95129
-4.89303
10.0099
-3.05248
11.0674
-1.33347
9.76228
10.7982
1.09235
9.30369
2.17155
8.56115
3.99518
9.18269
4.95166
9.49059
5.05983
10.0574
5.79296
10.168
2.76626
10.0674
1.12168
6.8575
-0.0594523
6.25242
-0.390621
5.36943
-0.254108
4.85335
0.0370662
4.68044
0.386579
4.6135
0.708804
4.64552
0.91886
4.77903
0.798216
5.17889
-0.518442
6.4859
-2.33535
7.06839
-5.03045
9.93217
-4.28035
9.96609
-3.97171
9.64241
-3.50884
9.54708
-1.86129
9.41987
-0.760684
8.6615
10.037
2.0065
7.29556
3.17433
7.39243
4.37592
7.98062
5.96376
7.9066
7.06196
8.96157
6.64344
10.5862
4.69861
12.0166
2.13416
9.42131
0.858091
7.52451
0.162545
6.06186
-0.0260358
5.03939
-0.0601409
4.71305
-0.026855
4.58053
-0.0218159
4.63936
-0.152514
4.90956
-0.795167
5.82097
-2.35624
8.0471
-4.93206
9.64389
-6.74367
11.741
-7.24674
10.468
-6.42631
8.82189
-4.99879
8.12041
-3.70633
8.12743
-2.56081
7.51581
7.47611
2.53659
4.75822
4.16159
5.76779
4.70117
7.44183
4.34613
8.26243
4.5599
8.75221
4.29136
10.8559
4.16555
12.1427
2.53636
11.0475
1.3451
8.71579
0.589885
6.81554
0.219133
5.40943
-0.0780863
5.01194
-0.374191
4.87934
-0.674185
4.94316
-1.01727
5.25604
-1.88551
6.69226
-3.23006
9.39477
-4.93191
11.3457
-5.85379
12.6642
-6.23384
10.8507
-5.96735
8.5543
-5.94258
8.09547
-4.96674
7.15204
-2.94083
5.4905
4.53525
3.16401
1.59374
6.23704
2.69471
8.48469
5.19564
8.26811
8.47983
6.47892
10.5406
5.93186
11.4039
5.59995
12.4745
4.93035
11.7157
4.16841
9.47737
3.24904
7.73553
1.98413
6.67557
0.822664
6.1759
-0.327928
6.03286
-1.52141
6.13997
-2.89242
6.6308
-3.98747
7.79131
-4.38935
9.79987
-4.75898
11.7182
-4.64054
12.546
-5.29012
11.4937
-7.53835
10.7996
-7.85815
8.41688
-5.77133
5.06635
-2.95915
2.67822
1.57617
1.20173
0.392514
2.93083
0.966497
4.95844
3.16992
6.46727
6.97436
5.76434
11.2456
5.44525
11.7245
5.42108
12.4992
4.88724
12.2462
3.81931
10.5432
2.65541
8.89858
1.50593
7.82501
0.374712
7.30766
-0.756372
7.16473
-1.92158
7.30606
-3.1679
7.87864
-4.45815
9.0831
-5.46647
10.8095
-5.88352
12.1361
-5.813
12.4742
-6.09486
11.7736
-6.67289
11.3762
-4.99344
6.74074
-2.98307
3.05781
-1.21278
0.908358
0.363785
0.582137
-0.188711
0.866587
0.682732
0.998693
3.03867
1.33025
6.64761
2.26195
10.3138
2.91123
11.0747
3.41138
12.0016
3.33527
12.3211
2.66334
11.2112
1.79389
9.76605
0.936022
8.68183
0.101731
8.14158
-0.73584
8.002
-1.60909
8.17915
-2.54807
8.81788
-3.49139
10.0268
-4.09705
11.4156
-4.03255
12.0717
-3.41726
11.8577
-2.71774
11.0735
-1.6689
10.3265
-1.14452
6.21702
-0.918189
2.83196
-0.598621
0.589013
-0.23404
-0.157124
-0.0312594
-0.302106
0.828407
-0.694761
3.43309
-0.649365
6.60677
0.393638
9.27173
1.30492
10.1614
1.89937
11.4098
2.03296
12.187
1.74129
11.4988
1.26807
10.237
0.714845
9.23372
0.1443
8.71099
-0.415744
8.56098
-0.99124
8.75366
-1.5484
9.37442
-1.98638
10.4644
-2.16488
11.5938
-1.95281
11.8597
-1.26964
11.1734
-0.297377
10.1012
0.793673
9.23565
0.680982
6.32993
0.360722
3.1529
0.200385
0.749628
-0.0334951
-0.523393
0.492534
-1.36269
1.66741
-1.78117
3.85137
-1.7983
6.6281
-0.91653
8.38777
-0.0589744
9.30121
0.460248
10.8925
0.766765
11.88
0.854546
11.4084
0.722835
10.3671
0.488252
9.46723
0.214221
8.984
-0.0788215
8.85289
-0.337698
9.0114
-0.5321
9.56797
-0.600067
10.5318
-0.46972
11.4634
-0.184165
11.5746
0.448635
10.5406
1.30771
9.2424
2.17028
8.37261
2.03014
6.46974
1.4934
3.69012
0.540938
1.70289
0.508127
-0.399759
0.891472
-1.50661
2.7735
-2.42482
4.76959
-2.54451
6.74942
-2.06338
7.90502
-1.59795
8.83502
-1.03224
10.3284
-0.517297
11.365
-0.164856
11.0541
-0.00216482
10.2037
0.0155185
9.44897
-0.0529773
9.0515
-0.136773
8.93557
-0.209372
9.08302
-0.194446
9.55218
-0.0133796
10.35
0.351962
11.098
0.836263
11.0903
1.34608
10.0304
1.92264
8.66554
2.45638
7.83858
2.33348
6.59253
1.36546
4.6588
0.352484
2.71653
0.861466
-0.38725
1.2785
-1.40001
3.78532
-2.18639
5.55588
-2.42374
6.98615
-2.19119
7.6703
-1.88676
8.53019
-1.45263
9.89584
-0.924258
10.8374
-0.477827
10.6073
-0.228094
9.95365
-0.111752
9.33217
-0.0589238
8.99775
-0.0381989
8.91381
0.0272364
9.01654
0.169391
9.40916
0.436874
10.0819
0.86916
10.6649
1.381
10.579
1.77058
9.64144
2.10967
8.32649
2.38024
7.56796
2.11409
6.85866
1.30204
5.47079
0.349362
3.66957
1.21103
-0.343913
1.62046
-1.23082
4.67267
-2.0516
6.3763
-2.40925
7.34373
-2.37941
7.64026
-2.15823
8.31001
-1.77586
9.51534
-1.21763
10.2803
-0.723363
10.113
-0.348156
9.57855
-0.131686
9.11532
0.00936593
8.85588
0.148199
8.77416
0.292829
8.87111
0.524559
9.17683
0.929577
9.67627
1.44622
10.1485
1.95845
10.0666
2.28303
9.31712
2.49781
8.11127
2.5088
7.55704
2.13989
7.22849
1.24333
6.36799
0.353531
4.55938
1.56557
-0.455469
2.07845
-1.37346
5.58939
-2.19938
7.20044
-2.53343
7.67714
-2.59022
7.69956
-2.45961
8.18059
-2.16444
9.2209
-1.65484
9.77102
-1.13703
9.59485
-0.75128
9.19284
-0.462905
8.82663
-0.228095
8.62056
-0.0315522
8.57706
0.205088
8.6337
0.501458
8.88009
0.878413
9.29891
1.35228
9.67455
1.8352
9.58428
2.14197
9.01083
2.29692
7.95643
2.23964
7.61449
1.95757
7.51121
1.22344
7.10208
0.379588
5.40296
1.94523
-0.378028
2.45922
-1.22818
6.43408
-1.97078
7.94193
-2.16626
7.8721
-2.35272
7.88733
-2.2698
8.09763
-1.98616
8.93832
-1.49147
9.27644
-1.0224
9.12585
-0.613863
8.78443
-0.310786
8.52316
-0.0643113
8.3738
0.181874
8.33045
0.42836
8.38704
0.740526
8.56761
1.17913
8.86032
1.66444
9.18884
2.10254
9.14628
2.33854
8.77567
2.40736
7.88708
2.19754
7.82322
1.94696
7.76194
1.17735
7.87142
0.360347
6.22118
2.30462
-0.312221
2.76972
-1.20132
7.32298
-1.91827
8.65789
-2.0845
8.0396
-2.23217
8.03837
-2.1661
8.03175
-1.9193
8.68993
-1.4886
8.84425
-1.02904
8.66705
-0.651148
8.40635
-0.316295
8.18823
-0.0166268
8.07373
0.255249
8.05855
0.565559
8.0764
0.916104
8.2173
1.30235
8.47428
1.74054
8.75153
2.16436
8.72268
2.37992
8.55991
2.44653
7.82205
2.28369
7.98698
2.09546
7.95193
1.40896
8.55795
0.464706
7.16627
2.76785
-0.545556
3.3158
-1.45564
8.23435
-2.05864
9.25611
-2.2272
8.20565
-2.40193
8.21326
-2.43803
8.06647
-2.23775
8.48924
-1.78572
8.39308
-1.34878
8.23053
-0.935028
7.99265
-0.598885
7.85228
-0.303118
7.77851
-0.000620847
7.7562
0.294294
7.78168
0.635018
7.87673
1.05721
8.05222
1.48915
8.3202
1.87038
8.34198
2.07053
8.36033
2.03396
7.85645
1.93155
8.08821
1.72101
8.1617
1.14874
9.13485
0.386304
7.92977
3.14559
-0.442366
3.74978
-1.28645
9.07947
-1.88864
9.86303
-2.03251
8.35053
-2.0389
8.21898
-2.01555
8.0408
-1.82314
8.29571
-1.46759
8.03718
-1.07427
7.83799
-0.7282
7.64732
-0.392401
7.517
-0.0682821
7.45467
0.233925
7.45443
0.564522
7.4518
0.907117
7.53474
1.26261
7.6977
1.64336
7.93955
2.01327
7.97254
2.15511
8.21929
2.15974
7.854
2.14645
8.10199
1.93625
8.3722
1.40415
9.67044
0.555298
8.77008
3.70838
-0.407872
4.14707
-0.825415
9.49517
-1.59545
10.6375
-1.76174
8.52283
-1.8209
8.2797
-1.77719
7.99494
-1.64627
8.16477
-1.32322
7.71373
-0.998004
7.5149
-0.654748
7.30478
-0.352232
7.21528
-0.0696484
7.17273
0.230828
7.15471
0.507744
7.17512
0.816703
7.2264
1.18637
7.32879
1.52913
7.59794
1.79654
7.70566
1.92226
8.0933
1.95022
7.82606
1.93755
8.11577
1.86566
8.44525
1.14644
10.3826
0.5885
9.33779
4.3186
-0.662814
4.81751
-1.11796
9.94238
-1.84106
11.3586
-1.99053
8.66403
-1.95635
8.24094
-1.88823
7.92509
-1.71301
7.98923
-1.42435
7.42837
-1.10985
7.20212
-0.821107
7.01703
-0.527761
6.92277
-0.222081
6.86814
0.0617454
6.87162
0.373123
6.86492
0.671907
6.92834
0.95319
7.04808
1.24976
7.30243
1.54793
7.40794
1.68559
7.95568
1.75595
7.75464
1.75475
8.11743
1.71263
8.48461
0.798474
11.3046
0.403541
9.75826
4.72436
-0.470354
5.29167
-0.773815
10.2389
-1.39046
11.9819
-1.60022
8.87683
-1.65429
8.29578
-1.60552
7.87521
-1.45078
7.83771
-1.18933
7.16794
-0.910445
6.92543
-0.607084
6.71488
-0.326061
6.64275
-0.0666997
6.60938
0.215913
6.59005
0.471578
6.60996
0.752437
6.64843
1.06991
6.73166
1.34796
7.02441
1.58937
7.16869
1.74612
7.80013
1.76797
7.73223
1.75232
8.13173
1.45698
8.78153
0.992917
11.7699
0.444873
10.2907
5.15393
-0.334361
5.63414
-0.504759
10.417
-1.02454
12.5112
-1.5256
9.38463
-1.56472
8.33798
-1.48284
7.7942
-1.26733
7.6242
-1.05616
6.95883
-0.81629
6.68791
-0.580251
6.47926
-0.333182
6.39632
-0.0683859
6.34572
0.172592
6.34996
0.441512
6.34193
0.686195
6.40439
0.917463
6.50131
1.16395
6.77924
1.39716
6.93486
1.57384
7.6248
1.6258
7.68261
1.67462
8.08518
1.25518
9.19888
0.729005
12.2915
0.313978
10.6846
5.46244
-0.462661
6.09271
-0.707871
10.6842
-1.00612
12.8063
-1.6071
9.97467
-1.56514
8.28998
-1.51841
7.74104
-1.37467
7.48009
-1.12569
6.71332
-0.910145
6.4737
-0.657103
6.227
-0.41701
6.15729
-0.196872
6.12633
0.0492831
6.10479
0.266578
6.12557
0.514411
6.15744
0.778463
6.23785
0.981575
6.57696
1.19661
6.72062
1.35598
7.46413
1.3918
7.64616
1.34845
8.12812
0.73966
9.8077
0.424792
12.6065
0.257763
10.851
5.70747
-0.252158
6.33929
-0.37703
10.814
-0.508158
12.9388
-1.24765
10.7178
-1.36918
8.4182
-1.34013
7.71581
-1.12781
7.27481
-0.911057
6.49841
-0.698367
6.26129
-0.502561
6.03162
-0.288106
5.9435
-0.0501033
5.88936
0.164295
5.89128
0.408891
5.88179
0.61791
5.94896
0.811216
6.0458
1.04051
6.34864
1.28141
6.48184
1.46108
7.28749
1.48352
7.62509
1.42088
8.19113
0.711811
10.5185
0.614113
12.6722
0.526593
10.9461
6.24842
-0.0500276
6.37987
-0.0658453
10.8243
-0.1033
12.9712
-0.789594
11.4202
-1.18378
8.81725
-1.14052
7.67437
-1.02954
7.16383
-0.833531
6.3006
-0.65405
6.08203
-0.445366
5.82284
-0.242264
5.74097
-0.0613963
5.70903
0.147249
5.68331
0.322809
5.70704
0.527741
5.74472
0.757132
5.81664
0.922128
6.18431
1.10417
6.29958
1.27739
7.11483
1.34156
7.56236
0.982047
8.55101
0.314601
11.1927
0.286426
12.7047
0.265435
10.9188
6.56219
-0.217497
6.59446
-0.374178
10.9763
-0.23363
12.8259
-0.761806
11.9372
-1.32987
9.37428
-1.23077
7.56919
-1.06395
6.99456
-0.884199
6.12235
-0.691198
5.88953
-0.524734
5.65749
-0.352704
5.56962
-0.149026
5.50607
0.0323937
5.50253
0.235603
5.50435
0.406747
5.57396
0.568485
5.6554
0.77612
5.97697
0.950282
6.12624
1.05
7.01311
1.13164
7.47972
0.494437
9.19475
-0.0757656
11.7657
0.0452583
12.5609
0.0655911
10.9613
6.64924
-0.0360507
6.62336
-0.0615007
11.0016
0.125661
12.6435
-0.168676
12.2349
-0.861054
10.0859
-0.939544
7.6536
-0.864323
6.924
-0.718184
5.97663
-0.573667
5.74422
-0.38576
5.46915
-0.202321
5.38632
-0.0434976
5.34741
0.136471
5.32301
0.293851
5.34737
0.477283
5.39098
0.682827
5.45056
0.814264
5.84618
0.962056
5.98035
1.09273
6.88579
1.04152
7.53112
0.411011
9.81919
0.112696
12.0642
0.251345
12.4597
0.180264
11.0737
6.79406
0.0118265
6.60717
0.0740274
10.9368
0.300451
12.4174
0.205857
12.3262
-0.54168
10.8519
-0.909625
8.02249
-0.735518
6.74572
-0.637147
5.87515
-0.48774
5.59399
-0.352192
5.33375
-0.208907
5.24333
-0.0418122
5.18053
0.113033
5.16819
0.286501
5.17407
0.424019
5.2537
0.56264
5.3116
0.745294
5.66254
0.841917
5.88187
1.05277
6.67368
0.767993
7.81746
0.00335688
10.5864
-0.135075
12.201
0.0173531
12.3194
-0.0432731
11.1059
6.71681
-0.132666
6.74012
-0.09961
10.9016
0.073834
12.2361
0.153048
12.2234
-0.318943
11.3089
-0.815007
8.50721
-0.775056
6.70259
-0.662072
5.76277
-0.569349
5.50113
-0.41737
5.18272
-0.262359
5.08843
-0.123981
5.04226
0.0282391
5.01615
0.161418
5.041
0.321722
5.09338
0.477521
5.15665
0.550685
5.59068
0.631029
5.80273
0.729904
6.57605
0.185901
8.36519
-0.424242
11.2054
-0.348535
12.1273
-0.300139
12.259
-0.130286
10.9662
6.51383
-0.0357175
6.77882
0.0310814
10.8322
0.194221
12.0641
0.546881
11.869
0.115084
11.7519
-0.489007
9.12171
-0.646595
6.86789
-0.509769
5.62575
-0.41181
5.40263
-0.304198
5.07394
-0.182159
4.96587
-0.0346313
4.89446
0.104147
4.87733
0.256998
4.88806
0.374185
4.97621
0.495137
5.03499
0.642487
5.44355
0.761319
5.68438
0.638698
6.69928
0.0819873
8.916
-0.299726
11.5779
-0.10722
11.9235
0.0166481
12.106
0.113663
10.7488
6.60795
0.0934327
6.68954
0.255675
10.6658
0.311581
12.0038
0.574513
11.5916
0.740572
11.5802
-0.0437746
9.90702
-0.471601
7.28162
-0.445758
5.59492
-0.372123
5.3269
-0.271214
4.9735
-0.146369
4.84116
-0.032326
4.78057
0.09654
4.74835
0.209613
4.77493
0.343799
4.84204
0.452556
4.92629
0.521633
5.37249
0.59302
5.61088
0.332792
6.95843
-0.429576
9.68757
-0.496083
11.6612
-0.195715
11.6201
-0.132138
12.0309
-0.0133616
10.5981
6.61801
-0.115738
6.80948
-0.0102276
10.5588
0.0918127
11.8956
0.35015
11.3253
0.626597
11.2892
0.0641588
10.4646
-0.405092
7.74156
-0.466981
5.66049
-0.383698
5.24564
-0.304675
4.89469
-0.216184
4.75253
-0.0934193
4.6575
0.0228728
4.63191
0.145283
4.65241
0.231646
4.75543
0.31722
4.84109
0.412745
5.27912
0.321464
5.70368
-0.158318
7.43622
-0.809159
10.3346
-0.563827
11.4028
-0.32662
11.3736
-0.252668
11.9318
-0.0683765
10.4418
6.59462
0.0506103
6.75991
0.242935
10.3679
0.290707
11.8526
0.472071
11.1638
0.871035
10.9037
0.712941
10.6339
0.00290466
8.46075
-0.30296
5.96647
-0.318621
5.25889
-0.216467
4.79048
-0.121481
4.65669
-0.0296432
4.56523
0.0786437
4.5233
0.172879
4.55789
0.281733
4.64651
0.349822
4.77143
0.379035
5.24737
0.137942
5.94489
-0.460768
8.03719
-0.793499
10.666
-0.342437
10.9437
-0.12489
11.1282
-0.0922039
11.9243
0.0244786
10.3992
6.65103
0.0634425
6.70053
0.300585
10.1397
0.399271
11.757
0.568492
10.9831
0.828392
10.6368
0.970026
10.4837
0.306554
9.1164
-0.0811022
6.34502
-0.212503
5.38846
-0.159867
4.73829
-0.0974474
4.59465
-0.0152527
4.48307
0.0702963
4.43741
0.163846
4.46427
0.226931
4.58312
0.313504
4.68476
0.254625
5.30632
-0.136008
6.33131
-0.845142
8.74676
-0.723209
10.5514
-0.400745
10.6141
-0.211579
10.9435
-0.176308
11.9487
0.00928828
10.2425
6.68984
-0.026232
6.72616
0.145602
9.97565
0.266195
11.6354
0.394501
10.8471
0.617442
10.4266
1.02407
10.0858
0.723955
9.41851
0.0679468
7.00239
-0.226492
5.68637
-0.187704
4.7001
-0.126278
4.5325
-0.0585876
4.41461
0.0117944
4.36734
0.0742173
4.40145
0.139033
4.51791
0.170934
4.65477
-0.0831295
5.56284
-0.715206
6.96466
-1.19319
9.22634
-0.779164
10.1325
-0.539358
10.3744
-0.420429
10.8366
-0.35425
11.8722
-0.0716714
9.9786
6.63697
-0.0223679
6.74352
0.22851
9.72111
0.424333
11.449
0.527817
10.7658
0.737907
10.2318
1.01658
9.81713
0.987095
9.44874
0.361078
7.62319
0.00348419
6.0404
-0.0995565
4.80026
-0.0625977
4.49485
-0.0126505
4.36417
0.0376878
4.31732
0.0897994
4.34894
0.136253
4.47114
0.0877757
4.70121
-0.241825
5.89046
-0.868279
7.58772
-1.04274
9.4056
-0.703446
9.8025
-0.473985
10.1576
-0.396048
10.755
-0.165683
11.6552
0.10105
9.71369
6.74885
0.0188359
6.72818
0.278253
9.46983
0.540043
11.1838
0.610612
10.6719
0.777009
10.0536
0.994573
9.59707
1.31913
9.11839
0.890651
8.04864
0.173352
6.75776
-0.00791965
4.98252
-0.0182828
4.50586
0.00554232
4.34007
0.0374475
4.28571
0.0641846
4.32184
0.0721664
4.46293
-0.0973193
4.87111
-0.786515
6.58123
-1.1931
7.99359
-0.97843
9.19146
-0.746158
9.575
-0.56871
9.99634
-0.500883
10.709
-0.174131
11.312
0.0744119
9.45636
6.81429
-0.0288343
-0.534759
-0.0522457
-0.581741
-0.081536
-0.626265
-0.105889
-0.692597
-0.130258
-0.757682
-0.155985
-0.823539
-0.178954
-0.888071
-0.19579
-0.94951
-0.20445
-1.00988
-0.203326
-1.07046
-0.195748
-1.12278
-0.185024
-1.17266
-0.169928
-1.21554
-0.152893
-1.24635
-0.134907
-1.27361
-0.116979
-1.29731
-0.100161
-1.31823
-0.0850947
-1.34
-0.0727236
-1.36371
-0.0624082
-1.39079
-0.0555773
-1.41751
-0.050772
-1.44669
-0.0504685
-1.49121
-0.0465056
-1.50052
-0.0444302
-1.53374
-0.037845
-1.53708
-0.0306312
-1.54781
-0.0191167
-1.54435
-0.00912987
-1.51014
-1.42593
0.00756144
-0.538808
-0.0212477
-0.549561
-0.0460494
-0.595514
-0.0727643
-0.654804
-0.0970326
-0.717101
-0.122889
-0.779003
-0.145499
-0.840012
-0.16208
-0.90173
-0.170938
-0.964332
-0.172976
-1.02674
-0.16959
-1.08463
-0.162212
-1.1416
-0.151217
-1.19099
-0.137579
-1.23056
-0.122289
-1.26659
-0.106071
-1.2971
-0.0908737
-1.32274
-0.0779101
-1.34602
-0.0672118
-1.36905
-0.0579336
-1.39563
-0.0510548
-1.42842
-0.0483463
-1.46164
-0.0449778
-1.48528
-0.0424677
-1.50952
-0.039075
-1.53009
-0.0344124
-1.53675
-0.0280443
-1.54343
-0.0208505
-1.53796
-0.0105587
-1.50694
-1.43352
-0.0222126
-0.510282
-0.0536842
-0.514641
-0.0840067
-0.557711
-0.113312
-0.612309
-0.141789
-0.672386
-0.170153
-0.731625
-0.193477
-0.790223
-0.211504
-0.850941
-0.223574
-0.913388
-0.226547
-0.979788
-0.224387
-1.04347
-0.217408
-1.10714
-0.20558
-1.16329
-0.190315
-1.21195
-0.172755
-1.25728
-0.153637
-1.29504
-0.13504
-1.32716
-0.118065
-1.35415
-0.103366
-1.37685
-0.0913796
-1.4031
-0.0826636
-1.43259
-0.0757152
-1.45917
-0.0680466
-1.48633
-0.0620543
-1.50951
-0.053585
-1.52702
-0.0455223
-1.53505
-0.036002
-1.5391
-0.0256824
-1.53418
-0.0129127
-1.50813
-1.43058
-0.0380464
-0.46616
-0.0737534
-0.475403
-0.108207
-0.51505
-0.139418
-0.566315
-0.171771
-0.624439
-0.203021
-0.681824
-0.228864
-0.738888
-0.247654
-0.799283
-0.259752
-0.862352
-0.264882
-0.930427
-0.265321
-0.998738
-0.261095
-1.06685
-0.251695
-1.1288
-0.238088
-1.18644
-0.220926
-1.24049
-0.200973
-1.28688
-0.180324
-1.32682
-0.160677
-1.35889
-0.143196
-1.38454
-0.126608
-1.41217
-0.113962
-1.44016
-0.101926
-1.46238
-0.090509
-1.48626
-0.0801468
-1.50594
-0.0681529
-1.52431
-0.0561981
-1.53326
-0.0455575
-1.53709
-0.0334188
-1.53033
-0.0172128
-1.5058
-1.42537
-0.0382021
-0.422649
-0.0753701
-0.434486
-0.110934
-0.470872
-0.142457
-0.519432
-0.175453
-0.57599
-0.206961
-0.632276
-0.233412
-0.688404
-0.25218
-0.748495
-0.265115
-0.811186
-0.273035
-0.880783
-0.276492
-0.951521
-0.27513
-1.02299
-0.268633
-1.09007
-0.258046
-1.15537
-0.243205
-1.21731
-0.224387
-1.2728
-0.203394
-1.32167
-0.181819
-1.36105
-0.161215
-1.39305
-0.144153
-1.41991
-0.12814
-1.44601
-0.112896
-1.46509
-0.0995534
-1.48532
-0.0866516
-1.50381
-0.0729653
-1.52071
-0.0600881
-1.53109
-0.0479177
-1.53333
-0.0342578
-1.52453
-0.0176686
-1.49689
-1.42409
-0.0363005
-0.380757
-0.0763548
-0.390679
-0.112883
-0.42565
-0.144881
-0.472466
-0.177437
-0.528187
-0.208628
-0.583876
-0.234601
-0.639231
-0.251297
-0.698386
-0.266804
-0.761507
-0.278446
-0.831105
-0.284979
-0.902823
-0.286056
-0.976877
-0.282968
-1.04832
-0.275902
-1.11942
-0.26424
-1.18798
-0.247689
-1.25195
-0.227787
-1.3095
-0.206772
-1.35886
-0.184774
-1.39813
-0.164128
-1.42767
-0.144231
-1.45254
-0.126303
-1.47025
-0.110279
-1.48707
-0.0950641
-1.50388
-0.0797363
-1.51868
-0.064859
-1.52937
-0.051675
-1.53018
-0.0367591
-1.5277
-0.0191506
-1.50736
-1.45009
-0.038471
-0.336697
-0.0790749
-0.346026
-0.11603
-0.379979
-0.148846
-0.425795
-0.180167
-0.48114
-0.210917
-0.536725
-0.235723
-0.591584
-0.251868
-0.650558
-0.269496
-0.713359
-0.283778
-0.781313
-0.293086
-0.854222
-0.296572
-0.930221
-0.296663
-1.00508
-0.293011
-1.08028
-0.28472
-1.15385
-0.271133
-1.22462
-0.252124
-1.29111
-0.231671
-1.34963
-0.208898
-1.39773
-0.184649
-1.43407
-0.161274
-1.45917
-0.139776
-1.47722
-0.120744
-1.49155
-0.102945
-1.50542
-0.0857472
-1.51816
-0.0690369
-1.52811
-0.0546097
-1.53164
-0.0388565
-1.54029
-0.0206995
-1.52773
-1.45228
-0.041598
-0.28942
-0.0832952
-0.299978
-0.120163
-0.334246
-0.152914
-0.379542
-0.183661
-0.434885
-0.213952
-0.490609
-0.239532
-0.545653
-0.254745
-0.604654
-0.272616
-0.666942
-0.288611
-0.733108
-0.299519
-0.807354
-0.306432
-0.883846
-0.309232
-0.961224
-0.308709
-1.0393
-0.303845
-1.11628
-0.292436
-1.19284
-0.277227
-1.26572
-0.260271
-1.33093
-0.238324
-1.3898
-0.210943
-1.43489
-0.183128
-1.46639
-0.157181
-1.48767
-0.13455
-1.50032
-0.113842
-1.50902
-0.0941184
-1.52007
-0.0742857
-1.52988
-0.0595878
-1.5346
-0.0422793
-1.55267
-0.0221503
-1.52141
-1.44864
-0.0446508
-0.238802
-0.0860655
-0.253824
-0.122961
-0.288616
-0.155146
-0.333946
-0.185322
-0.389705
-0.214952
-0.445769
-0.240446
-0.501736
-0.259128
-0.560572
-0.274603
-0.623023
-0.291191
-0.68715
-0.303189
-0.762248
-0.312498
-0.838749
-0.317906
-0.917287
-0.320429
-0.997108
-0.318236
-1.07635
-0.311223
-1.156
-0.301253
-1.23213
-0.285279
-1.30555
-0.265279
-1.37385
-0.237263
-1.43016
-0.207592
-1.46966
-0.176704
-1.49696
-0.149157
-1.50957
-0.124682
-1.51744
-0.102144
-1.52775
-0.0806402
-1.53565
-0.0629074
-1.54097
-0.0427754
-1.54483
-0.0222778
-1.52401
-1.45581
-0.0448389
-0.187681
-0.086538
-0.207379
-0.123657
-0.242703
-0.155027
-0.289254
-0.184337
-0.345813
-0.213041
-0.402831
-0.238195
-0.459918
-0.259166
-0.519028
-0.274871
-0.580379
-0.289793
-0.644446
-0.302943
-0.718265
-0.312719
-0.796462
-0.320338
-0.874863
-0.326881
-0.952319
-0.328701
-1.03241
-0.325689
-1.11379
-0.318158
-1.19346
-0.30545
-1.27404
-0.286406
-1.35021
-0.262143
-1.4163
-0.230321
-1.46767
-0.197657
-1.50198
-0.165861
-1.52033
-0.137672
-1.52812
-0.112158
-1.53486
-0.0891112
-1.54134
-0.0648207
-1.54584
-0.0416105
-1.54895
-0.0221026
-1.54741
-1.48375
-0.0445342
-0.136345
-0.085971
-0.161069
-0.12253
-0.197474
-0.15284
-0.245817
-0.180951
-0.303499
-0.208493
-0.362056
-0.233104
-0.420308
-0.253577
-0.4798
-0.270422
-0.539899
-0.285321
-0.603697
-0.29645
-0.679146
-0.307553
-0.755191
-0.320018
-0.829198
-0.329743
-0.905567
-0.334102
-0.988365
-0.333833
-1.069
-0.329358
-1.15168
-0.320213
-1.2372
-0.30414
-1.3196
-0.28169
-1.39342
-0.250814
-1.45668
-0.215862
-1.50269
-0.181765
-1.52837
-0.150491
-1.53936
-0.121917
-1.54373
-0.0960325
-1.54922
-0.0702431
-1.55568
-0.0461184
-1.5636
-0.0242238
-1.54152
-1.47654
-0.0438158
-0.0857984
-0.0855667
-0.114264
-0.120234
-0.154469
-0.14928
-0.204018
-0.175949
-0.263099
-0.202154
-0.323363
-0.226029
-0.382824
-0.24607
-0.442743
-0.2626
-0.501864
-0.274167
-0.568028
-0.287968
-0.640051
-0.304471
-0.711253
-0.318468
-0.784482
-0.328421
-0.860771
-0.334898
-0.943064
-0.336957
-1.02316
-0.335676
-1.10744
-0.329907
-1.19606
-0.316926
-1.28296
-0.296091
-1.36418
-0.267462
-1.43584
-0.233786
-1.49298
-0.195795
-1.53275
-0.160998
-1.55003
-0.129649
-1.55373
-0.101713
-1.55782
-0.076058
-1.56376
-0.0533694
-1.56724
-0.0276052
-1.54381
-1.47963
-0.0442183
-0.0346177
-0.0833726
-0.0692715
-0.117535
-0.112831
-0.145085
-0.164377
-0.170103
-0.224836
-0.194876
-0.286493
-0.217867
-0.347414
-0.237443
-0.40787
-0.253146
-0.467036
-0.266723
-0.533847
-0.283238
-0.601114
-0.299331
-0.669672
-0.313232
-0.74141
-0.324566
-0.817261
-0.332518
-0.897745
-0.336452
-0.97732
-0.337981
-1.0619
-0.335235
-1.15196
-0.325438
-1.2418
-0.308134
-1.32901
-0.282645
-1.41052
-0.249348
-1.47773
-0.211839
-1.52691
-0.172885
-1.55591
-0.136931
-1.56485
-0.107354
-1.56696
-0.0800344
-1.5723
-0.0577513
-1.57101
-0.0302133
-1.55245
-1.49414
-0.0426104
0.0158789
-0.0801509
-0.0259491
-0.1131
-0.0725087
-0.139858
-0.126526
-0.163562
-0.188813
-0.186757
-0.251466
-0.208826
-0.313925
-0.22812
-0.374885
-0.24342
-0.434316
-0.259506
-0.499335
-0.276103
-0.564313
-0.291572
-0.631084
-0.305759
-0.700728
-0.318156
-0.775084
-0.327128
-0.853151
-0.332639
-0.9322
-0.336456
-1.01611
-0.336287
-1.10614
-0.329683
-1.19739
-0.316213
-1.28873
-0.29479
-1.37739
-0.264439
-1.45647
-0.227067
-1.51939
-0.186686
-1.55823
-0.146782
-1.57397
-0.109919
-1.57575
-0.0858491
-1.56821
-0.0599155
-1.5697
-0.0315291
-1.56491
-1.51339
-0.0420805
0.0643813
-0.0767186
0.015444