/*--------------------------------*- C++ -*----------------------------------*\
| =========                 |                                                 |
| \\      /  F ield         | OpenFOAM: The Open Source CFD Toolbox           |
|  \\    /   O peration     | Version:  2112                                  |
|   \\  /    A nd           | Website:  www.openfoam.com                      |
|    \\/     M anipulation  |                                                 |
\*---------------------------------------------------------------------------*/
FoamFile
{
    version     2.0;
    format      ascii;
    arch        "LSB;label=32;scalar=64";
    class       volScalarField;
    location    "0.01089";
    object      T;
}
// * * * * * * * * * * * * * * * * * * * * * * * * * * * * * * * * * * * * * //

dimensions      [0 0 0 1 0 0 0];

internalField   nonuniform List<scalar> 
13875
(
1412
1535.57
1482.38
1487.52
1482.02
1483.92
1484.62
1483.48
1484.69
1484.71
1484.08
1484.19
1483.5
1483.91
1483.85
1483.86
1483.44
1484.72
1484.87
1483.12
1481.88
1487.7
1480.55
1533.14
1398.72
1307.02
1356.17
1318.89
1322.02
1316.48
1318.05
1322.06
1322.78
1323.78
1323.73
1323.09
1323.12
1318.02
1317.67
1318.37
1322.76
1322.95
1323.47
1322.31
1317.82
1316.7
1321.89
1319.58
1356.63
1303.83
1307.23
1340.06
1314.24
1311.72
1305.21
1305.7
1305.67
1305.82
1307.06
1306.54
1305.17
1305.99
1303.79
1304.03
1303.9
1305.78
1303.9
1305.92
1306.03
1305.09
1304.86
1311.04
1311.37
1336.24
1296.5
1317.37
1344.8
1314.63
1308.63
1305.85
1306
1304.66
1304.28
1304.73
1304
1303
1303.63
1303.9
1304.07
1304.04
1303.44
1302.42
1303.48
1304.2
1305.49
1305.35
1307.7
1313.95
1343.46
1311.33
1329.53
1342.13
1315.71
1312.41
1304.96
1305.55
1305.31
1304.58
1304.92
1304.07
1303.03
1303.51
1303.81
1304.22
1303.82
1303.29
1302.51
1303.98
1305.19
1304.88
1304.74
1311.76
1311.96
1338.39
1316.06
1332.21
1351.15
1318.79
1309.96
1307.9
1307.24
1304.68
1304.45
1304.62
1303.99
1303.19
1303.77
1304.16
1304.5
1304.29
1303.54
1302.63
1303.52
1304.26
1306.56
1307.27
1308.43
1318.99
1349.16
1326.88
1338.99
1360.48
1329.01
1317.53
1308.1
1307.45
1306.44
1305.54
1305.25
1304.24
1303.64
1303.76
1304.37
1304.83
1304.23
1303.57
1303.16
1304.58
1306.19
1306.51
1307.79
1317.6
1325.62
1358.19
1321.99
1359.74
1384.7
1344.03
1321.22
1316.66
1310.6
1306.68
1305.52
1305.38
1304.69
1304.34
1304.54
1305.1
1305.51
1305.2
1304.17
1303.74
1304.94
1306.16
1309.97
1315.3
1320.38
1341.47
1381.05
1350.45
1537.23
1508.42
1387.13
1350.36
1322
1316.11
1311.44
1308.22
1306.94
1306.15
1305.82
1305.57
1306.32
1306.85
1306.3
1305.63
1305.61
1307.28
1310.55
1314.22
1321.32
1349.21
1382.71
1505.66
1520.81
1834.99
1574.42
1427.03
1358.43
1338.31
1320.94
1314.01
1310.76
1310.02
1309.08
1308.49
1308.27
1308.96
1309.53
1309.16
1308.55
1308.81
1310.92
1314.08
1320.56
1337.06
1357.2
1424.85
1566.59
1826.34
2507.33
1804.52
1517.41
1406.71
1350.22
1331.84
1325.72
1318.01
1316.33
1314.74
1313.81
1313.54
1314.14
1314.84
1314.68
1314.58
1315.11
1317.69
1326.13
1330.03
1348.7
1419.47
1502.16
1797.77
2429.68
2812.59
2301.52
1735.13
1462.9
1426.01
1361.68
1339.83
1332.05
1329.15
1326.62
1325.45
1325.12
1325.5
1326.18
1326.27
1326.87
1328.16
1331.77
1339.71
1371.46
1405.47
1457.3
1731.4
2306.24
2837.7
2786.79
2656.16
2350.21
2201.79
1523.42
1414.61
1396.47
1372.99
1363.89
1357.16
1354.26
1353.24
1353.16
1353.83
1354.62
1357.51
1363.55
1374.88
1399.59
1421.72
1567.38
2234.23
2245.77
2687.24
2766.77
2723.13
2661.55
2743.56
2785.89
2048.82
1829.29
1521.53
1476.54
1458.82
1447.01
1442.91
1441.42
1441.25
1441.96
1443.17
1447.65
1458.71
1478.86
1541.67
1922.58
2101.01
2804.38
2792.5
2703.04
2701.58
2582.59
2639.53
2685.79
2687.36
2589.22
2363.58
2024.47
1963.89
1865.13
1766.41
1731.6
1720.34
1716.78
1718.4
1725.05
1749.16
1840.33
1961.79
1984.06
2420.62
2637.08
2735.68
2678.52
2652.4
2625.87
2500.3
2536.55
2626.83
2683.64
2657.1
2686.95
2872.45
2940.86
2936.42
3034.56
3116.11
3138.78
3148.95
3142.94
3126.04
3058.84
2906.27
2939.3
2900.01
2717.38
2660.84
2706.45
2623.99
2557.84
2533.26
2313.9
2398.75
2478.99
2530.35
2603.84
2728.13
3029.42
3408.52
3593.41
3683.51
3697.86
3691.39
3688.76
3692.82
3701.92
3703.26
3600.2
3418.74
3054.94
2739.34
2615.59
2564.74
2469.94
2404.61
2329.05
2023.86
2146.27
2301.94
2615.01
2791.25
2830.78
2957.09
3308.53
3529.75
3642.63
3672.91
3672.64
3672.16
3674.79
3676.13
3648.11
3502.22
3291.03
2964.32
2841.72
2808.22
2563.58
2269.51
2139.73
2024
1812.85
1878.72
2010.32
2239.9
2715.11
2841.41
2878.65
3103.47
3355.58
3498.67
3543.38
3555.38
3559.84
3559.12
3549.38
3509.84
3359.8
3119.55
2918.65
2921.1
2676.17
2203.29
2007.62
1885.07
1814.86
2459.82
2346.28
2106.97
2195.99
2506.35
2690.12
2699.73
2840.15
3079.12
3278.1
3387.59
3431.41
3440.01
3433.53
3390.27
3276.87
3067.12
2851.21
2729.69
2715.73
2484.28
2222.66
2140.21
2347.87
2452.78
3248.65
3420.68
2750.85
2300.41
2375.49
2533.62
2551.13
2659.46
2884
3110.18
3251.1
3304.61
3315.12
3303.19
3244.09
3090.02
2854.75
2656.28
2559.59
2542.24
2358.9
2325.13
2810.66
3480.62
3255.51
3629.11
3569.23
2811.03
2210.33
2213.32
2370.18
2419.27
2524.04
2737
2963.81
3118.79
3180.86
3189.41
3175.2
3100.82
2930.19
2699.82
2521.32
2418.46
2370.75
2190.83
2248.55
2901.08
3619.3
3674.39
3497.97
3116.44
2487.07
2056.59
2061.67
2237.97
2311.61
2416.2
2608.57
2833.17
2989.11
3052.71
3065.62
3046.44
2972.73
2804.57
2582.39
2415.56
2299.82
2235.58
2036.83
2055.72
2476.87
3127.57
3529.41
3511.74
2957.99
2247.43
1903.37
1977.1
2140.84
2208.91
2317.56
2505.08
2716.33
2868.67
2934.5
2945.2
2928.54
2852.16
2688.13
2475.98
2318.75
2202.28
2131.5
1944.23
1894.5
2255.84
2981.1
3543.52
3447.56
2787.6
2096.44
1822.34
1931.79
2069.12
2120.14
2231.51
2409.65
2615.37
2757.31
2817.28
2831.16
2809.58
2738.65
2584.9
2382.24
2227.14
2119.09
2064.35
1897.52
1810.17
2113.1
2835.07
3480.8
3425.83
2751.19
2039.99
1827.95
1908.39
2002.2
2041.48
2149.62
2324.62
2513.23
2650.99
2711.56
2721.49
2706.32
2636.69
2489.23
2297.53
2149.39
2044.58
2002.22
1878.66
1819.52
2040.18
2762.98
3453.31
3346.54
2605.19
1967.12
1830.04
1884
1955.06
1975.87
2085.68
2250.03
2430.96
2552.86
2605.51
2619.67
2599.54
2538.51
2407.84
2227.24
2079.86
1978.47
1961.68
1859.72
1824.57
1972.23
2616.78
3366.46
3303.78
2559.71
1971.79
1864.5
1873.98
1906.8
1915.39
2024.87
2187.22
2349.14
2462.21
2513.59
2522.33
2509.29
2448.8
2323.91
2156.27
2019.51
1918.29
1915.41
1854.96
1852.15
1976.11
2609.53
3362.94
3304.57
2538.55
1941.41
1854.3
1842.45
1874.65
1867.14
1976.77
2122.52
2276.53
2374.72
2419.24
2433.31
2415.09
2366.02
2262.56
2107.15
1971.31
1871.39
1884.05
1833.49
1852.73
1936
2516.44
3283.04
3265.7
2542.64
1973.71
1886.94
1840.53
1849.05
1826.42
1931.53
2073.75
2208.6
2298.29
2341.39
2348.12
2338.19
2287.29
2189.23
2048.08
1927.68
1827.75
1868.54
1829.58
1873.26
1960.12
2525.43
3268.86
3183.9
2454.41
1945.48
1886.13
1802.26
1824.91
1794.06
1904.2
2026.45
2152.12
2224.99
2258.46
2270.84
2254.45
2215.84
2136.54
2007.03
1890.59
1793.89
1837.64
1806.27
1874.93
1940.82
2462.19
3213.88
3162.26
2454.64
1990.84
1909.63
1808.21
1803.19
1770.21
1867.37
1982.68
2090.28
2157.89
2192.91
2197.09
2191.8
2150.94
2076.74
1963.4
1867.46
1768.52
1820.59
1807.81
1890.64
1967.29
2421.3
3132.54
3089.82
2399.96
1995.82
1893.69
1781.67
1773.35
1744.56
1849.78
1944.34
2045.11
2097.48
2121.02
2131.68
2118.38
2090.53
2034.55
1928.72
1837.62
1743.44
1784.18
1789.6
1885.47
1962.59
2375.09
3094.99
3049.85
2378.45
2027.32
1914.94
1805.29
1759.47
1732.22
1824.97
1909.42
1992.96
2039.77
2067.6
2069.04
2066.86
2033.88
1980.39
1890.54
1821.16
1723.79
1772.25
1796.76
1899.83
2013.32
2368.7
3085.12
3011.43
2343.21
2016.21
1905.73
1785.05
1729.22
1701.47
1810.16
1874.47
1952.55
1988.39
2005.13
2014.4
2003.41
1984.73
1948.51
1862.75
1802.18
1697.86
1739.27
1793.93
1900.84
2016.74
2338.54
3027.7
2988.81
2328.38
2019.78
1925.18
1804.26
1734.44
1697.07
1787.89
1846.36
1907.99
1939.5
1962.1
1961.47
1961.69
1933.64
1897.22
1831.87
1791.53
1683.68
1731.76
1807.41
1921.14
2013.96
2346.11
3009.91
2945.43
2285.64
2007.9
1942.4
1793.55
1718.76
1670.42
1773.93
1817.23
1876.79
1897.58
1908.14
1915.75
1905.86
1893.81
1873.42
1801.35
1769.1
1663.18
1720.57
1792.6
1937.41
2007.06
2303.72
2973.84
2939.14
2297.59
2014.6
1977.36
1814.48
1730.6
1670.63
1757.15
1790.92
1835.07
1854.72
1873.55
1871.13
1873.78
1849.97
1826.25
1779.7
1764.29
1658.2
1722.84
1815.19
1971.45
2004.3
2283.46
2914.97
2907.48
2279
1995.59
1993.05
1816.38
1717.08
1654.27
1746.07
1762.41
1810.23
1821.24
1826.73
1832.79
1825.59
1818.13
1808.45
1744.09
1740.62
1650.31
1715.98
1809.34
1994.77
1979.48
2265.58
2879.5
2859.18
2269.97
1980.12
1993.67
1846.56
1747.42
1672.88
1736.78
1743.46
1771.92
1783.65
1799.44
1795.69
1800
1778.88
1764.25
1728.39
1737.05
1656.3
1733.61
1839.32
1987.24
1964.01
2247.23
2881.17
2832.97
2259.73
1949.16
1982.27
1880.58
1732.87
1662.06
1726.96
1716.42
1753.02
1756.44
1759.03
1763.15
1758.04
1754.64
1753.62
1693.88
1718.9
1666.61
1726.02
1872.37
1985.79
1938.33
2252.82
2861.9
2797.4
2250.6
1937.4
1977.13
1930.14
1769.99
1703.55
1731.45
1705.78
1718.85
1723.39
1737.01
1731.99
1737.47
1718.5
1716.04
1690.18
1725.82
1690.66
1761.9
1934.2
1977.88
1940.21
2272.39
2820.13
2767.67
2228.53
1915.95
1960.74
1929.23
1787.35
1702.48
1728.76
1683.83
1707.47
1702.72
1701.8
1704.17
1700.65
1700.51
1709.32
1656.76
1711.61
1698.3
1772.85
1935.43
1965.94
1924.44
2247.32
2776.74
2732.66
2228.1
1913.67
1928.36
1915.01
1839
1743.27
1749.72
1689.69
1680.6
1674.46
1684.53
1677.95
1684.95
1667.87
1681.96
1671.99
1734.67
1727.66
1827.63
1929.2
1946.98
1918.3
2213.65
2743.41
2709.89
2217.34
1903.02
1906.15
1906.7
1906.17
1761.7
1747.08
1676.71
1679.99
1660.71
1653.51
1654.33
1653.38
1658.28
1682.15
1651.61
1728.2
1753.79
1895.54
1916
1917.21
1900.97
2215.5
2711.92
2668.31
2198.67
1901.08
1880.83
1877.99
1890.45
1825.24
1771.4
1701.98
1667.42
1640.9
1643.09
1632.93
1642.98
1629.72
1664.24
1679.92
1755.59
1807.18
1898.25
1899.17
1894.08
1905.51
2201.36
2673.34
2650.07
2196.04
1895.16
1861.5
1850.8
1876.95
1908.09
1794.44
1691.29
1681.83
1644.43
1622.49
1616.15
1619.9
1641.81
1683.63
1664.58
1771.91
1882.77
1876.9
1867
1874.94
1885.41
2196.65
2649.95
2601.1
2173.23
1891.93
1854.74
1827.12
1864
1895.39
1853.42
1729.42
1672.72
1632.9
1627.6
1607.95
1627.23
1618.64
1672.16
1711.4
1825.85
1899.44
1866.51
1843.72
1858.91
1898.39
2182.84
2598.85
2560.45
2156.21
1874.85
1840.4
1801.71
1826.18
1879.24
1941.95
1734.82
1698.73
1649.02
1617.51
1607.99
1612.64
1645.81
1696.89
1712.28
1917.76
1878.21
1828.71
1820.81
1857.39
1894.52
2160.37
2560.72
2396.47
2107.8
1855.05
1829.87
1788.12
1796.57
1859.17
1924.33
1823.44
1711.09
1641.63
1630.69
1610.61
1630.3
1623.24
1706.81
1796.52
1928.58
1863.31
1801.49
1803.63
1849.3
1869.93
2105.31
2391.89
1071.59
1004.95
944.237
876.222
808.405
744.291
689.49
643.699
605.629
574.045
547.639
525.782
508.302
493.774
482.309
473.293
466.077
459.855
454.035
448.845
444.118
439.551
435.526
431.692
428.008
424.249
420.519
416.826
412.397
409.331
1072.13
1005.8
947.399
884.275
822.253
763.997
713.559
669.951
632.593
600.135
571.643
546.973
525.922
507.542
492.72
480.98
472.036
464.65
458.116
452.505
447.512
442.847
438.434
434.276
430.486
426.919
423.398
419.846
415.934
413.521
1072.65
1010.87
956.062
896.348
837.394
781.526
731.858
688.567
650.839
617.448
587.621
561.374
538.1
517.393
500.312
486.317
475.342
466.826
459.73
453.864
448.717
443.84
439.304
434.977
431.074
427.544
424.208
420.719
417.184
414.738
1080.26
1020.33
969.029
913.149
858.323
806.204
758.769
716.178
678.551
644.44
613.111
584.638
558.338
534.593
514.424
497.259
483.401
472.465
463.987
457.467
451.746
446.652
441.994
437.513
433.295
429.619
426.347
423.286
420.077
417.318
1087.02
1031.61
984.079
932.241
881.587
832.744
786.747
744.673
706.807
671.688
639.187
608.77
579.956
553.345
529.977
509.404
492.314
478.536
467.98
460.03
453.58
448.124
443.253
438.748
434.367
430.561
427.403
424.483
421.378
418.728
1094.49
1042.54
998.848
951.462
905.36
860.178
815.994
774.958
737.548
702.267
668.791
636.811
605.721
576.338
549.648
525.435
504.676
487.421
474.053
464.12
456.785
450.983
445.877
441.193
436.675
432.712
429.602
426.877
424.18
422.13
1100.46
1053.79
1014.01
971.477
929.989
888.326
846.225
806.477
769.854
734.662
700.295
666.695
633.351
601.352
571.387
543.576
518.907
497.923
481.144
468.574
459.534
452.747
447.269
442.358
437.761
433.727
430.588
428.029
425.846
424.462
1107.15
1065.23
1029.65
992.101
955.256
917.161
877.634
839.583
803.793
768.76
733.82
699.055
663.532
629.004
596.004
564.778
536.57
511.991
491.532
475.626
463.969
455.774
449.73
444.566
439.866
435.731
432.472
430.202
428.133
426.94
1112.86
1076.85
1045.91
1013.3
980.966
946.699
910.148
874.176
838.83
803.982
768.764
732.691
695.309
658.165
622.458
588.436
557.1
529.005
504.955
485.055
469.547
458.868
451.679
446.224
441.303
436.989
433.534
430.834
428.97
428.189
1120.14
1088.54
1062.43
1034.7
1006.83
976.602
943.29
909.321
875.021
840.018
804.654
767.431
728.482
689.404
651.694
615.622
581.296
549.803
521.915
498.147
478.577
464.179
454.765
448.573
443.475
439.03
435.24
432.135
430.683
430.328
1125.75
1099.92
1078.76
1055.96
1032.6
1006.41
976.542
944.614
911.479
876.762
841.14
802.83
762.788
722.987
683.745
645.516
608.127
573.319
541.652
513.743
490.301
471.661
458.672
450.563
444.886
440.316
436.243
433.389
431.805
431.265
1131.81
1110.86
1094.67
1076.8
1058
1035.77
1009.45
979.709
947.714
913.73
877.952
838.768
799.04
758.929
717.788
677.489
637.572
599.732
564.352
532.206
504.604
482.098
465.299
454.188
447.224
442.217
438.021
435.123
433.597
433.062
1136.33
1120.9
1110.25
1097.09
1082.81
1064.48
1041.71
1014.18
983.286
950.45
914.255
875.897
836.616
796.311
753.503
711.242
669.279
628.516
589.483
553.203
521.054
493.854
472.946
458.443
449.637
443.874
439.37
436.257
434.688
434.331
1140.27
1130.63
1124.93
1116.73
1107
1092.48
1073
1047.7
1018.19
986.112
950.418
913.576
874.828
834.401
790.87
746.42
702.876
659.569
617.211
577.008
540.409
508.524
482.744
464.071
452.343
445.677
441.001
437.765
436.303
436.167
1144.23
1139.59
1138.75
1135.4
1130.16
1119.57
1103.08
1080.16
1052.53
1021.64
986.915
951.06
913.202
872.84
829.102
782.846
738
692.566
647.212
603.44
562.702
526.1
495.387
471.809
455.968
447.062
441.876
438.51
437.077
436.973
1147.52
1148.62
1151.89
1152.94
1152.04
1145.39
1131.89
1111.36
1085.94
1055.94
1022.8
988.173
951.211
911.247
867.665
820.597
774.339
727.338
679.452
632.49
587.863
546.845
511.182
482.346
461.563
449.247
443.225
439.747
438.199
437.946
1150.01
1156.44
1163.33
1169.42
1172.35
1169.63
1159.27
1141.3
1117.87
1089.13
1057.77
1024.56
988.192
949.175
905.902
859.117
811.423
763.336
713.435
663.7
615.453
570.108
529.525
495.349
469.276
452.594
444.454
440.453
438.612
438.413
1152.37
1163.62
1174.85
1184.98
1191.23
1192.13
1185.03
1169.78
1148.23
1121.14
1091.55
1059.58
1024.04
986.051
943.56
897.671
849.153
800.164
748.871
696.95
645.586
596.265
550.874
511.211
479.484
457.768
446.606
441.523
439.316
439.285
1153.54
1170.12
1185.04
1198.99
1208.89
1212.72
1208.99
1196.59
1176.86
1151.7
1123.89
1093.25
1058.73
1021.35
980.303
935.346
887.278
837.196
785.079
731.526
677.567
624.767
574.919
530.035
492.591
465.279
449.7
442.491
439.771
439.625
1155.1
1176.13
1194.89
1212.12
1225.24
1231.56
1231.01
1221.45
1203.73
1180.7
1154.68
1125.33
1091.83
1055.87
1015.11
971.861
925.057
874.113
821.401
766.675
710.593
654.79
601.14
551.836
509.329
476.44
454.975
444.569
440.632
439.739
1155.79
1181.91
1203.9
1224.37
1239.9
1248.87
1251.01
1244.29
1228.8
1208
1183.77
1155.71
1123.36
1088.71
1049.51
1006.61
961.622
910.86
857.355
801.862
744.191
686.027
629.276
576.157
529.068
490.316
462.249
447.495
441.589
440.347
1155.5
1187.4
1212.53
1236.04
1253.89
1264.77
1269.09
1265.08
1252.02
1233.53
1211.09
1184.37
1153.34
1119.95
1082.23
1040.59
996.409
947.114
892.692
836.673
777.96
718.016
658.689
602.062
550.446
506.282
471.983
451.887
443.423
441.466
1157.17
1192.76
1221.4
1247.1
1266.49
1279.27
1285.42
1283.94
1273.43
1257.31
1236.72
1211.4
1181.8
1149.66
1113.51
1073.21
1029.44
981.857
927.623
870.773
811.527
750.292
688.868
629.081
573.108
523.44
483.066
456.825
445.031
441.979
1134.86
1201.62
1232.15
1258.52
1278.48
1292.38
1300.2
1300.99
1293.12
1279.44
1260.76
1236.88
1208.83
1177.98
1143.29
1104.3
1061.81
1014.87
961.912
904.094
844.615
782.596
719.552
657.079
597.224
542.564
496.779
463.791
447.267
442.347
1165.71
1240.73
1255.64
1273.06
1291.1
1305.18
1313.88
1316.29
1311.31
1300.04
1283.31
1260.92
1234.51
1204.97
1171.64
1133.87
1092.3
1046.16
994.53
936.61
876.949
814.465
750.236
685.651
622.806
564.318
513.628
473.8
451.223
443.429
408.326
412.026
416.338
420.224
424.111
427.841
431.345
435.071
439.244
443.551
448.133
453.119
458.627
465.086
472.262
481.375
492.772
507.343
525.062
547.017
573.72
605.475
643.727
689.554
744.195
808.16
875.871
943.883
1004.51
1071.75
413.319
416.018
419.786
423.287
426.786
430.49
434.416
438.466
443.026
447.311
452.009
457.408
463.77
471.51
480.496
492.368
507.264
525.702
547.076
571.861
600.561
633.123
670.479
713.757
763.847
821.829
883.602
946.759
1005.06
1071.74
414.558
417.014
420.376
423.813
427.22
431.134
435.124
439.505
443.941
448.42
453.306
458.888
466.003
474.674
485.769
499.934
517.227
538.027
561.592
587.956
617.871
651.418
688.957
731.874
781.08
836.879
895.387
955.176
1009.67
1072.28
417.366
419.742
422.82
426.005
429.378
433.18
437.319
441.994
446.661
451.61
457
463.005
471.551
482.473
496.513
513.801
534.16
557.968
584.538
613.201
644.628
678.953
716.407
758.538
805.404
857.465
912.056
967.765
1018.95
1079.96
418.648
421.096
424.002
427.084
430.351
434.124
438.344
443.103
448.023
453.346
459.467
466.811
477.088
490.673
507.857
528.479
552.028
578.714
607.912
638.556
671.284
706.543
744.225
785.888
831.371
880.3
931.035
982.646
1029.98
1086.25
421.417
423.742
426.335
429.314
432.403
436.197
440.544
445.434
450.522
456.186
463.19
472.35
485.114
502.087
522.71
546.777
573.588
603
634.539
666.893
700.6
736.306
773.585
814.24
857.945
903.462
949.808
997.262
1040.69
1093.82
423.398
425.025
427.368
430.261
433.256
437.211
441.614
446.556
451.894
458.137
466.542
478.145
494.146
514.416
538.688
566.245
596.327
628.439
662.327
696.548
731.261
767.065
804.005
843.428
885.149
927.343
969.14
1012.1
1051.87
1100.03
426.858
427.355
429.214
432.061
435.218
439.251
443.633
448.69
454.343
461.598
472.117
486.798
505.981
529.539
557.107
587.936
621.048
655.79
692.034
727.772
763.379
799.094
835.743
873.66
913.13
951.848
989.12
1027.35
1063.28
1107.03
428.394
428.518
430.113
432.938
436.515
440.69
445.125
450.357
456.739
465.949
479.469
497.891
520.8
547.852
578.327
611.835
647.554
684.788
723.038
760.232
796.479
832.322
868.382
904.789
941.762
976.768
1009.65
1043.1
1074.7
1112.49
429.796
430.125
431.732
434.475
438.374
442.721
447.327
452.936
460.801
472.828
490.095
512.421
539.123
569.668
603.416
639.233
676.833
715.966
755.79
794.204
830.766
866.512
901.808
936.633
970.895
1001.95
1030.57
1059.28
1086.24
1119.65
430.568
431.124
432.701
435.46
439.438
444
448.919
455.534
466.076
482.215
503.773
530.097
560.562
594.492
631.501
669.841
709.016
749.352
790.19
829.542
866.158
902.005
935.882
968.822
1000.09
1027.08
1051.47
1075.35
1097.56
1125.6
432.285
432.882
434.157
437.037
441.277
445.94
451.486
460.271
474.7
495.169
520.789
551.202
585.427
622.536
662.257
702.862
744.243
785.223
825.9
865.958
902.695
937.64
970.331
1001.05
1029.01
1051.97
1072
1091.09
1108.51
1131.84
433.752
434.096
435.384
438.325
442.69
447.655
454.798
467.076
485.765
510.506
540.593
575.292
613.31
653.521
695.567
738.113
781.632
822.826
863.222
902.705
939.729
973.281
1004.8
1033.14
1057.51
1076.39
1092.06
1106.44
1118.88
1136.79
435.214
435.377
436.719
439.799
444.365
450.016
459.66
475.888
499.087
528.725
563.511
602.429
644.071
687.077
730.886
775.434
820.267
861.426
901.333
939.361
975.806
1008.61
1038.73
1064.68
1085.4
1100.29
1111.67
1121.29
1128.51
1141.81
435.915
435.902
437.261
440.619
445.311
452.723
466.078
487.075
515.466
550.071
589.613
632.577
677.486
722.867
767.877
814.32
859.573
900.535
939.603
976.321
1011.88
1043.41
1071.7
1095.31
1112.47
1123.65
1130.45
1135.34
1138
1144.87
436.764
436.757
438.261
441.782
446.919
457.188
475.249
501.614
535.345
575.1
619.009
665.552
713.221
760.398
806.382
853.996
899.061
939.505
977.479
1013.04
1046.95
1077.49
1103.42
1124.69
1138.62
1145.98
1148.32
1148.63
1147.03
1148.66
437.563
437.581
439.098
442.826
449.537
463.647
487.274
519.5
558.774
603.288
651.172
700.765
750.599
798.903
845.995
893.626
938.119
977.638
1014.57
1048.68
1080.8
1110.13
1133.98
1152.63
1163.5
1166.98
1165.14
1160.73
1155.12
1151.81
438.304
438.384
440.256
444.711
454.116
473.12
502.771
540.894
585.369
634.288
685.632
737.653
788.998
837.942
885.996
932.649
976.272
1014.58
1050.45
1083.16
1113.41
1141.14
1163.12
1179.05
1186.77
1186.51
1181.27
1172.55
1162.62
1154.28
438.599
438.758
441.209
447.351
460.899
485.884
521.462
565.189
614.569
667.355
721.556
775.392
827.651
877.149
925.426
970.676
1012.76
1050.36
1084.84
1116.16
1144.57
1170.38
1190.56
1203.77
1208.18
1204.87
1195.62
1183.15
1169.37
1155.65
438.986
439.454
442.831
452.021
471.171
502.234
543.497
592.23
645.79
701.763
758.181
813.238
865.919
916.231
963.417
1006.71
1048.15
1084.37
1117.61
1147.59
1174.15
1197.79
1216.06
1226.61
1227.82
1221.95
1209.48
1193.07
1175.48
1157.37
439.67
440.463
445.452
458.469
484.381
521.704
568.147
621.163
678.136
736.635
794.728
850.539
903.599
954.302
999.468
1041.99
1081.96
1116.63
1148.57
1177.27
1202.03
1223.4
1239.53
1247.48
1245.89
1237.53
1222.21
1202.23
1181.39
1158.22
440.551
442.089
449.306
467.3
499.948
543.176
594.511
651.352
711.149
771.566
830.79
886.951
940.734
990.589
1034.2
1075.77
1114.02
1147.27
1177.83
1205.23
1228.18
1247.23
1260.95
1266.42
1262.51
1251.68
1234.17
1211.03
1187.1
1157.96
440.763
443.34
453.534
477.397
516.539
565.726
621.804
682.16
744.307
806.138
866.003
922.442
976.81
1024.64
1067.91
1108.05
1144.47
1176.35
1205.46
1231.49
1252.61
1269.31
1280.5
1283.6
1277.73
1265
1245.57
1220.32
1192.94
1159.47
441.102
445.133
459.424
490.068
535.159
589.649
649.974
713.311
777.297
840.091
900.157
957.285
1010.93
1057.6
1099.74
1138.69
1173.45
1203.97
1231.54
1256.15
1275.4
1289.73
1298.37
1299.19
1291.57
1277.58
1257.33
1231.59
1202.23
1137.91
442.178
448.586
468.317
506.212
556.516
615.265
678.933
744.607
809.907
873.236
933.312
990.961
1043.12
1088.92
1130.07
1167.81
1201.05
1230.21
1256.17
1279.31
1296.71
1308.68
1314.68
1313.57
1304.94
1290.31
1272.1
1254.96
1241.39
1168
1583.43
1621.64
1634.65
1658.7
1671.57
1691.62
1704.25
1721.21
1733.64
1748.53
1760.71
1774.09
1786.08
1798.39
1810.08
1821.67
1832.98
1844.22
1855.57
1866.94
1877.87
1888.15
1898.24
1908.27
1918.07
1927.29
1936.27
1944.9
1953.33
1961.58
1969.7
1977.6
1985.1
1992.12
1998.68
2004.79
2010.42
2015.54
2020.11
2024.09
2027.46
2030.16
2032.17
2033.26
2033.7
2033.52
2032.43
2030.58
2027.99
2024.53
2020.94
2015.45
2009.96
2003.66
1996.65
1988.96
1980.39
1971.07
1960.93
1950
1938.24
1925.59
1912.04
1897.55
1882.11
1865.77
1848.55
1830.49
1811.64
1792.09
1771.88
1751.07
1729.79
1708.09
1685.92
1663.42
1640.74
1617.66
1594.54
1571.57
1548.24
1524.51
1501.03
1477.38
1452.8
1428.13
1403.96
1378.55
1351.71
1325.36
1299.08
1270.06
1238.87
1209.11
1179.45
1146.99
1111.98
1077.44
1040.65
1002.17
962.178
920.347
877.313
833.696
789.976
747.745
707.889
670.911
637.303
607.43
581.278
558.147
537.893
520.605
505.809
492.914
481.871
472.643
465.132
459.076
454.024
449.932
447.005
444.981
443.586
1660.25
1688.75
1704.68
1723.1
1739.05
1755.11
1769.7
1784.24
1797.86
1811.36
1824.25
1837.01
1849.4
1861.61
1873.57
1885.31
1896.84
1908.22
1919.54
1930.81
1941.85
1952.55
1962.98
1973.18
1983.07
1992.56
2001.78
2010.78
2019.63
2028.35
2036.85
2044.99
2052.7
2059.94
2066.72
2073
2078.78
2084
2088.64
2092.68
2096.07
2098.79
2100.81
2102.04
2102.54
2102.43
2101.5
2099.79
2097.3
2094.07
2090.15
2085.28
2079.72
2073.37
2066.22
2058.32
2049.94
2040.16
2029.59
2018.08
2005.58
1992.04
1977.56
1962.16
1945.93
1928.77
1910.71
1891.78
1872.09
1851.7
1830.67
1809.05
1786.93
1764.43
1741.63
1718.59
1695.4
1672.04
1648.59
1625.05
1601.41
1577.71
1554
1530.16
1506.06
1481.76
1457.18
1432.02
1406.36
1380.32
1353.5
1325.52
1296.87
1267.95
1238.13
1206.77
1173.97
1140.26
1104.69
1068.05
1030.17
991.179
951.374
910.966
870.684
831.531
794.112
758.812
726.05
695.962
668.484
643.192
619.923
598.487
578.55
559.836
542.518
526.352
511.163
497.477
485.514
474.989
466.255
459.226
453.434
1718.46
1741.66
1759.16
1775.97
1791.94
1807.31
1821.96
1836.12
1849.88
1863.31
1876.41
1889.28
1901.9
1914.33
1926.55
1938.56
1950.37
1962.04
1973.6
1985.07
1996.35
2007.38
2018.17
2028.72
2038.9
2048.77
2058.41
2067.89
2077.24
2086.38
2095.2
2103.64
2111.63
2119.16
2126.18
2132.69
2138.65
2144.04
2148.82
2152.98
2156.51
2159.38
2161.57
2163.03
2163.72
2163.82
2163.12
2161.61
2159.31
2156.19
2152.26
2147.44
2141.75
2135.16
2127.68
2119.3
2110.04
2099.72
2088.4
2076.11
2063.02
2048.45
2032.99
2016.53
1998.98
1980.37
1960.94
1940.76
1919.94
1898.46
1876.36
1853.72
1830.69
1807.35
1783.79
1760.07
1736.27
1712.47
1688.71
1665.02
1641.36
1617.75
1594.13
1570.47
1546.73
1522.83
1498.69
1474.2
1449.32
1423.99
1398.06
1371.46
1344.33
1316.68
1288.22
1258.81
1228.41
1197.09
1164.71
1131.26
1096.52
1060.77
1025.22
989.318
953.598
918.495
884.409
851.67
820.49
790.945
762.995
736.354
710.891
686.519
663.009
640.257
618.517
597.667
577.42
558.083
540.167
523.222
507.406
492.992
479.905
1773.26
1794.48
1812.62
1829.02
1844.96
1860.3
1875.12
1889.52
1903.58
1917.35
1930.86
1944.16
1957.21
1970.02
1982.69
1995.12
2007.37
2019.51
2031.55
2043.48
2055.24
2066.78
2078.11
2089.19
2099.92
2110.37
2120.62
2130.73
2140.68
2150.35
2159.65
2168.54
2176.97
2184.89
2192.28
2199.11
2205.35
2210.99
2216
2220.39
2224.18
2227.34
2229.86
2231.69
2232.76
2233.14
2232.78
2231.54
2229.42
2226.39
2222.42
2217.47
2211.51
2204.53
2196.5
2187.41
2177.25
2165.95
2153.51
2139.96
2125.31
2109.44
2092.47
2074.47
2055.69
2035.47
2014.5
1992.71
1970.06
1946.63
1922.77
1898.62
1874.31
1849.82
1825.18
1800.48
1775.87
1751.4
1727.13
1703.09
1679.28
1655.64
1632.1
1608.6
1585.11
1561.57
1537.91
1514.05
1489.9
1465.4
1440.47
1415.06
1389.17
1362.79
1335.78
1308.04
1279.55
1250.29
1220.28
1189.57
1158.21
1126.4
1094.12
1061.45
1028.84
996.491
965.446
935.671
906.269
877.774
850.184
823.325
797.094
771.447
746.205
721.304
696.997
673.217
649.717
626.604
604.315
582.982
562.677
543.127
524.419
1829.3
1850.27
1868.92
1885.43
1901.63
1917.31
1932.57
1947.49
1962.12
1976.49
1990.62
2004.51
2018.15
2031.55
2044.73
2057.71
2070.54
2083.29
2095.99
2108.61
2121.07
2133.32
2145.31
2157.04
2168.43
2179.58
2190.55
2201.32
2211.9
2222.16
2232.03
2241.47
2250.42
2258.8
2266.58
2273.76
2280.29
2286.17
2291.43
2296.11
2300.26
2303.86
2306.85
2309.18
2310.79
2311.54
2311.59
2310.67
2308.74
2305.75
2301.7
2296.57
2290.32
2282.87
2274.2
2264.27
2253.06
2240.54
2226.71
2211.6
2195.2
2177.52
2158.62
2138.57
2117.45
2095.22
2072.05
2048.1
2023.69
1998.3
1972.67
1946.75
1920.51
1894.05
1867.7
1841.62
1815.94
1790.6
1765.63
1741.04
1716.89
1693.13
1669.69
1646.48
1623.35
1600.19
1577.01
1553.77
1530.34
1506.69
1482.74
1458.46
1433.82
1408.77
1383.25
1357.19
1330.56
1303.38
1275.65
1247.42
1218.73
1189.71
1160.46
1131.17
1101.84
1072.45
1043.51
1014.93
986.733
959.84
933.302
906.807
880.582
854.552
828.619
802.73
777.032
751.514
725.964
700.371
675.059
650.469
626.663
603.009
579.751
1887.89
1909.87
1928.99
1945.91
1962.66
1978.94
1994.87
2010.51
2025.89
2040.99
2055.81
2070.35
2084.6
2098.59
2112.36
2125.97
2139.47
2152.91
2166.32
2179.67
2192.9
2205.87
2218.51
2230.75
2242.71
2254.45
2265.98
2277.09
2288.11
2298.9
2309.24
2319.14
2328.47
2337.12
2345.11
2352.45
2359.08
2365.01
2370.35
2375.23
2379.75
2383.82
2387.29
2390.14
2392.38
2393.73
2394.15
2393.66
2391.97
2389.12
2385.15
2380.1
2373.84
2366.2
2357.07
2346.51
2334.46
2320.85
2305.7
2289.04
2270.92
2251.33
2230.35
2208.06
2184.54
2159.85
2134.09
2107.42
2080.12
2052.3
2024.26
1996.19
1968.35
1940.18
1912.27
1884.58
1857.14
1830.21
1804.06
1778.71
1754.16
1730.2
1706.72
1683.61
1660.85
1638.38
1615.98
1593.51
1570.87
1548.11
1525.21
1502.09
1478.71
1455.02
1430.96
1406.5
1381.63
1356.35
1330.69
1304.68
1278.36
1251.81
1225.12
1198.33
1171.51
1144.84
1118.44
1092.11
1065.7
1039.45
1012.93
986.842
961.453
935.565
909.578
883.382
857.051
830.585
803.82
776.649
749.329
722.346
695.881
669.088
642.354
1949.41
1973.2
1992.74
2010.22
2027.66
2044.64
2061.33
2077.72
2093.81
2109.56
2124.94
2139.98
2154.69
2169.14
2183.39
2197.51
2211.56
2225.59
2239.58
2253.46
2267.11
2280.25
2292.99
2305.33
2317.29
2328.88
2340.15
2351.15
2361.93
2372.51
2382.79
2392.61
2401.73
2409.88
2417.32
2424.29
2430.39
2435.69
2440.27
2444.51
2448.55
2452.37
2455.4
2458.25
2461.12
2463.17
2463.98
2464.04
2463.04
2460.95
2458.09
2454.43
2449.44
2442.88
2434.51
2424.26
2412.39
2398.71
2383.24
2365.93
2346.86
2326.05
2303.56
2279.51
2254.03
2227.26
2199.07
2169.66
2139.48
2108.9
2078.24
2047.71
2017.28
1986.98
1956.98
1927.48
1898.83
1870.69
1843.58
1817.37
1791.96
1767.42
1743.72
1720.73
1698.35
1676.35
1654.57
1632.91
1611.39
1589.8
1568.01
1545.92
1523.69
1501.27
1478.6
1455.66
1432.42
1408.89
1385.07
1360.99
1336.69
1312.19
1287.54
1262.81
1238.06
1213.38
1188.75
1164.11
1139.51
1114.89
1090.05
1064.94
1039.3
1012.97
987.386
961.231
934.79
907.998
880.668
852.633
824.099
795.492
767.137
738.164
708.93
2013.75
2039.89
2059.44
2077.32
2095.31
2112.81
2130.05
2146.92
2163.37
2179.35
2194.87
2209.97
2224.71
2239.18
2253.48
2267.68
2281.83
2295.85
2309.63
2323.06
2335.98
2348.24
2359.99
2371.1
2381.46
2391.06
2400.09
2408.66
2417.02
2425.28
2433.33
2441
2447.98
2454.06
2459.44
2464.25
2468.37
2471.4
2473.59
2475.9
2477.57
2479.9
2480.9
2483.1
2486.56
2488.67
2489.48
2489.97
2489.9
2488.81
2487.75
2485.89
2482.6
2478.21
2472.66
2465.36
2456.27
2445.02
2432
2418.07
2402.15
2384.07
2364.06
2342.03
2317.65
2291
2262.25
2231.4
2199.38
2166.79