/*--------------------------------*- C++ -*----------------------------------*\
| =========                 |                                                 |
| \\      /  F ield         | OpenFOAM: The Open Source CFD Toolbox           |
|  \\    /   O peration     | Version:  2112                                  |
|   \\  /    A nd           | Website:  www.openfoam.com                      |
|    \\/     M anipulation  |                                                 |
\*---------------------------------------------------------------------------*/
FoamFile
{
    version     2.0;
    format      ascii;
    arch        "LSB;label=32;scalar=64";
    class       volScalarField;
    location    "0.00285";
    object      p;
}
// * * * * * * * * * * * * * * * * * * * * * * * * * * * * * * * * * * * * * //

dimensions      [1 -1 -2 0 0 0 0];

internalField   nonuniform List<scalar> 
13875
(
951558
984206
973649
975544
973369
974421
974543
974464
974953
974793
975116
975113
974910
974866
975024
974764
974784
973865
974352
974240
973034
975585
972403
982403
945033
733766
659457
672223
677049
670225
668553
668624
670322
677785
679041
679002
678309
672392
670622
677948
679109
677802
671875
668691
668329
669859
677062
672340
657284
730697
736856
635527
664444
653538
648251
645942
645077
645348
647100
649311
649853
649370
648616
648151
649141
649669
648619
645568
644895
645626
647594
652029
662076
632210
733484
743500
636175
665331
653691
648534
646138
645218
645413
645078
646580
647711
648435
648803
648319
648106
646657
645483
645611
645040
645816
647865
652149
662828
632817
739263
757333
639193
667895
654390
649406
646722
645637
645667
645168
646649
647794
648538
649341
648778
648211
646730
645553
645814
645466
646369
648659
652734
665124
635468
750641
759083
647881
673695
656366
651279
647969
646527
646274
645532
646899
648081
648869
650104
649710
648554
646994
645863
646348
646362
647557
650397
654611
670730
643229
752037
765229
668472
686015
661357
655154
650525
648346
647607
646553
647627
648847
649733
651069
650903
649354
647655
646773
647604
648221
650152
654298
660324
682336
666030
756310
791700
718727
712217
675045
663621
656003
652161
650509
648933
649408
650584
651626
653116
653158
651253
649388
648979
650315
651961
655405
662388
673442
707587
715840
782637
910251
828922
767965
705845
680988
667074
659942
656597
654099
653653
654554
655775
657578
657750
655483
653526
653870
656026
659498
665949
678854
702265
761530
824455
911707
1.52971e+06
1.03222e+06
837978
745153
704303
683489
673092
667813
664359
663097
663431
664808
666989
667093
664784
662928
663893
666844
672528
682424
702333
741793
833127
1.02872e+06
1.52458e+06
2.92837e+06
1.4007e+06
973559
813184
744966
713259
697921
690006
685215
683080
682614
683845
686347
686211
684546
683242
684501
688237
696242
710905
740709
803946
953053
1.36005e+06
2.88221e+06
5.70242e+06
2.35713e+06
1.35158e+06
988736
838473
779523
752725
739420
732140
728703
727341
727779
730253
729908
729330
729588
731759
737546
750175
776340
833004
970840
1.30042e+06
2.301e+06
5.62896e+06
5.49127e+06
4.80954e+06
2.64353e+06
1.59015e+06
1.10357e+06
960942
900635
871551
857213
850376
847212
846293
848231
848038
849261
852558
859095
872835
901763
962672
1.10471e+06
1.5295e+06
2.38433e+06
4.91866e+06
5.40291e+06
4.96301e+06
4.69385e+06
5.00112e+06
4.61417e+06
1.93036e+06
1.54298e+06
1.40028e+06
1.31847e+06
1.28334e+06
1.26789e+06
1.26212e+06
1.26015e+06
1.2629e+06
1.26254e+06
1.26709e+06
1.27622e+06
1.29606e+06
1.33772e+06
1.4303e+06
1.61415e+06
2.10095e+06
4.60832e+06
5.06071e+06
4.80885e+06
4.8437e+06
4.18185e+06
4.33497e+06
4.88346e+06
4.88721e+06
4.68656e+06
3.54318e+06
3.40917e+06
3.09246e+06
2.94325e+06
2.87349e+06
2.84849e+06
2.83175e+06
2.84002e+06
2.83993e+06
2.85637e+06
2.892e+06
2.97615e+06
3.15163e+06
3.47482e+06
3.67205e+06
4.71729e+06
4.94107e+06
4.98187e+06
4.53438e+06
4.46454e+06
3.81095e+06
3.86569e+06
4.584e+06
5.21434e+06
6.59633e+06
7.93546e+06
8.97398e+06
8.89551e+06
9.2295e+06
9.11837e+06
9.26494e+06
9.15776e+06
9.26145e+06
9.17189e+06
9.26972e+06
9.15939e+06
9.23933e+06
8.96496e+06
9.02103e+06
8.08084e+06
6.75638e+06
5.36019e+06
4.79032e+06
4.10877e+06
4.12226e+06
3.03184e+06
3.48439e+06
4.64095e+06
5.48779e+06
6.7832e+06
7.65816e+06
7.80254e+06
7.74536e+06
7.56254e+06
7.40993e+06
7.29658e+06
7.2644e+06
7.19384e+06
7.24337e+06
7.26582e+06
7.3622e+06
7.50952e+06
7.70052e+06
7.73551e+06
7.7194e+06
6.91652e+06
5.66616e+06
4.83424e+06
3.71652e+06
3.33226e+06
2.44785e+06
3.24649e+06
4.66314e+06
5.36821e+06
6.07986e+06
6.22799e+06
6.0032e+06
5.98386e+06
5.97634e+06
5.98429e+06
5.99217e+06
5.99087e+06
5.99049e+06
5.99116e+06
5.99415e+06
5.98351e+06
5.96987e+06
5.97156e+06
5.99848e+06
6.1804e+06
6.12684e+06
5.50253e+06
4.82456e+06
3.14731e+06
2.32416e+06
1.30298e+06
2.27094e+06
3.92891e+06
4.34798e+06
4.56614e+06
4.7557e+06
4.89983e+06
5.08308e+06
5.24579e+06
5.34756e+06
5.4061e+06
5.43454e+06
5.44567e+06
5.43556e+06
5.40992e+06
5.35391e+06
5.25301e+06
5.09747e+06
4.92874e+06
4.80103e+06
4.62606e+06
4.40715e+06
3.94804e+06
2.39171e+06
1.34862e+06
667344
1.54027e+06
2.74651e+06
3.19651e+06
3.42094e+06
3.72262e+06
4.11156e+06
4.44348e+06
4.66018e+06
4.78863e+06
4.87131e+06
4.91753e+06
4.9365e+06
4.92309e+06
4.88132e+06
4.80583e+06
4.68384e+06
4.47542e+06
4.15177e+06
3.7638e+06
3.46161e+06
3.2336e+06
2.73344e+06
1.60059e+06
658273
720179
1.19767e+06
1.80112e+06
2.25568e+06
2.59826e+06
3.01778e+06
3.5001e+06
3.86424e+06
4.09113e+06
4.23721e+06
4.33684e+06
4.39386e+06
4.41625e+06
4.40042e+06
4.34837e+06
4.25603e+06
4.11646e+06
3.89364e+06
3.52186e+06
3.02211e+06
2.59533e+06
2.25114e+06
1.80143e+06
1.12778e+06
684751
954479
1.04972e+06
1.24541e+06
1.70324e+06
2.06042e+06
2.54694e+06
2.99432e+06
3.32858e+06
3.55329e+06
3.70957e+06
3.8153e+06
3.87548e+06
3.89901e+06
3.88069e+06
3.82412e+06
3.72449e+06
3.57288e+06
3.34964e+06
3.0087e+06
2.54513e+06
2.04081e+06
1.68154e+06
1.23338e+06
1.00009e+06
903121
1.3649e+06
1.058e+06
1.07234e+06
1.38069e+06
1.71332e+06
2.20188e+06
2.58019e+06
2.86643e+06
3.0821e+06
3.23675e+06
3.33938e+06
3.39779e+06
3.4209e+06
3.40024e+06
3.34247e+06
3.24243e+06
3.0889e+06
2.87177e+06
2.58446e+06
2.20712e+06
1.68766e+06
1.35946e+06
1.06252e+06
1.02263e+06
1.37506e+06
1.42923e+06
1.08096e+06
1.07621e+06
1.22884e+06
1.50007e+06
1.90208e+06
2.21655e+06
2.47418e+06
2.66789e+06
2.80996e+06
2.91175e+06
2.96698e+06
2.99092e+06
2.96896e+06
2.91231e+06
2.81099e+06
2.66738e+06
2.47117e+06
2.20594e+06
1.89086e+06
1.49075e+06
1.20965e+06
1.06379e+06
1.05261e+06
1.40534e+06
1.42903e+06
1.11973e+06
1.0894e+06
1.15893e+06
1.35708e+06
1.6552e+06
1.91397e+06
2.14532e+06
2.31889e+06
2.44772e+06
2.54054e+06
2.59325e+06
2.61259e+06
2.59391e+06
2.54078e+06
2.44632e+06
2.31442e+06
2.13788e+06
1.89989e+06
1.63545e+06
1.3479e+06
1.14356e+06
1.07541e+06
1.10063e+06
1.40494e+06
1.43447e+06
1.17836e+06
1.11847e+06
1.12394e+06
1.25012e+06
1.45586e+06
1.66794e+06
1.8688e+06
2.01966e+06
2.13506e+06
2.21956e+06
2.26327e+06
2.28327e+06
2.26332e+06
2.2168e+06
2.13057e+06
2.01077e+06
1.8563e+06
1.65326e+06
1.4368e+06
1.24543e+06
1.11114e+06
1.10338e+06
1.16688e+06
1.40527e+06
1.44729e+06
1.27437e+06
1.16289e+06
1.12425e+06
1.17506e+06
1.30817e+06
1.47693e+06
1.64239e+06
1.77244e+06
1.87313e+06
1.94503e+06
1.98395e+06
1.99773e+06
1.9826e+06
1.93812e+06
1.86508e+06
1.75973e+06
1.62611e+06
1.46004e+06
1.28495e+06
1.16076e+06
1.10983e+06
1.1519e+06
1.29647e+06
1.41997e+06
1.48904e+06
1.46853e+06
1.20567e+06
1.12256e+06
1.11973e+06
1.18951e+06
1.31407e+06
1.44727e+06
1.55567e+06
1.64387e+06
1.70816e+06
1.74037e+06
1.75505e+06
1.73853e+06
1.70301e+06
1.63781e+06
1.54716e+06
1.43623e+06
1.30411e+06
1.17434e+06
1.10802e+06
1.10985e+06
1.18696e+06
1.45181e+06
1.4622e+06
1.58225e+06
1.55076e+06
1.23118e+06
1.11441e+06
1.08477e+06
1.10765e+06
1.19371e+06
1.29362e+06
1.38185e+06
1.45469e+06
1.5066e+06
1.5365e+06
1.54691e+06
1.534e+06
1.50134e+06
1.44739e+06
1.37101e+06
1.27932e+06
1.1805e+06
1.09359e+06
1.0735e+06
1.1032e+06
1.21157e+06
1.50505e+06
1.55725e+06
1.77879e+06
1.59918e+06
1.24601e+06
1.09988e+06
1.05028e+06
1.04672e+06
1.09183e+06
1.1612e+06
1.22934e+06
1.28969e+06
1.33616e+06
1.3591e+06
1.36923e+06
1.35541e+06
1.33026e+06
1.28264e+06
1.22033e+06
1.14943e+06
1.07968e+06
1.03417e+06
1.03828e+06
1.08831e+06
1.23639e+06
1.57605e+06
1.71268e+06
1.84408e+06
1.63989e+06
1.27182e+06
1.08616e+06
1.01144e+06
992132
1.01258e+06
1.05808e+06
1.10755e+06
1.15401e+06
1.18916e+06
1.21068e+06
1.21753e+06
1.20805e+06
1.18429e+06
1.14779e+06
1.10028e+06
1.04986e+06
1.00442e+06
984709
1.00303e+06
1.07505e+06
1.25485e+06
1.61438e+06
1.85669e+06
1.84356e+06
1.66151e+06
1.31714e+06
1.08509e+06
978203
945440
943104
969657
1.00205e+06
1.03538e+06
1.06566e+06
1.08033e+06
1.0885e+06
1.07913e+06
1.06174e+06
1.03063e+06
995920
962202
934862
936838
967314
1.06883e+06
1.284e+06
1.64149e+06
1.85569e+06
1.8354e+06
1.6649e+06
1.37572e+06
1.08721e+06
948762
899060
888564
898068
919167
940450
960087
973313
978017
971669
955547
935192
912690
890582
881108
891497
938915
1.07173e+06
1.33758e+06
1.64895e+06
1.85063e+06
1.81876e+06
1.66445e+06
1.4972e+06
1.09983e+06
928329
857636
835202
832423
842551
855178
870823
877950
883320
877135
867889
851436
838576
827741
830909
851601
918172
1.07912e+06
1.42145e+06
1.64634e+06
1.83224e+06
1.78619e+06
1.66113e+06
1.56798e+06
1.12868e+06
922939
824540
789202
780818
781945
787424
795024
800798
802906
799523
791561
783490
778128
775932
784851
818705
914169
1.10255e+06
1.57684e+06
1.64132e+06
1.79504e+06
1.75884e+06
1.64235e+06
1.56563e+06
1.1595e+06
925192
798120
747101
729814
725697
726232
729946
731380
733880
729910
727627
723035
722303
725831
743240
792384
918586
1.14773e+06
1.5807e+06
1.62767e+06
1.72309e+06
1.71469e+06
1.60332e+06
1.56066e+06
1.22348e+06
936303
783547
714000
688060
679012
676040
674930
675148
675308
673945
673259
673714
676099
684232
710560
778567
926169
1.21158e+06
1.57147e+06
1.59271e+06
1.68203e+06
1.66698e+06
1.55557e+06
1.54715e+06
1.35163e+06
962506
784068
688973
649911
634180
628273
626214
623790
624551
623358
625126
627304
632593
646486
684456
779399
947467
1.34029e+06
1.55139e+06
1.53863e+06
1.64076e+06
1.63426e+06
1.51088e+06
1.51071e+06
1.35192e+06
994113
787984
674678
621360
599783
590297
584570
582201
581693
581974
583548
588797
598126
618699
672332
787793
992202
1.34773e+06
1.50914e+06
1.49179e+06
1.60325e+06
1.59886e+06
1.47111e+06
1.43812e+06
1.3481e+06
1.06109e+06
802690
675253
599121
566931
553233
547913
543352
543499
543526
547412
552994
566496
597832
672732
799936
1.06297e+06
1.34249e+06
1.41998e+06
1.45261e+06
1.57796e+06
1.55653e+06
1.43236e+06
1.36081e+06
1.33504e+06
1.19522e+06
834050
679977
589113
544981
526730
516284
512451
511128
512155
515682
525440
544710
589027
676992
827286
1.2064e+06
1.3276e+06
1.34056e+06
1.41997e+06
1.54402e+06
1.5247e+06
1.40224e+06
1.29962e+06
1.30046e+06
1.19416e+06
881357
686665
589586
528799
500330
488692
482868
482088
482023
488733
499921
528828
589909
692081
886164
1.20615e+06
1.29407e+06
1.28479e+06
1.38988e+06
1.50175e+06
1.47664e+06
1.37506e+06
1.25226e+06
1.23195e+06
1.18534e+06
980894
705647
594295
524805
486706
466094
459603
457322
459216
465596
485408
524264
593053
717040
990828
1.19058e+06
1.22478e+06
1.23807e+06
1.36009e+06
1.46835e+06
1.42496e+06
1.34599e+06
1.21846e+06
1.1686e+06
1.16116e+06
1.04367e+06
743095
606907
525704
471645
447901
437108
435274
436892
448123
473068
525135
602889
767182
1.04252e+06
1.15609e+06
1.16145e+06
1.20632e+06
1.33403e+06
1.42651e+06
1.38605e+06
1.31148e+06
1.19102e+06
1.11552e+06
1.10743e+06
1.039e+06
808248
629798
528145
471647
437926
422803
417680
422451
438281
473194
530558
627810
872989
1.03753e+06
1.08814e+06
1.10808e+06
1.18164e+06
1.29954e+06
1.37545e+06
1.3451e+06
1.27714e+06
1.17151e+06
1.07251e+06
1.03996e+06
1.02499e+06
942786
679595
538492
473527
437318
412921
406041
412492
436877
474328
541946
672341
925088
1.01715e+06
1.02595e+06
1.06605e+06
1.16296e+06
1.26716e+06
1.34173e+06
1.29818e+06
1.23424e+06
1.15035e+06
1.04529e+06
992090
993183
941646
781733
562694
479016
437985
412826
401024
412391
437433
478317
566584
762592
921954
973899
978877
1.03743e+06
1.14387e+06
1.23152e+06
1.29805e+06
1.25681e+06
1.19798e+06
1.12933e+06
1.02713e+06
953861
940731
929138
847608
608857
490036
439839
413263
401522
413072
440688
490242
621083
839353
910703
921486
943446
1.01968e+06
1.12375e+06
1.1947e+06
1.24954e+06
1.17377e+06
1.14538e+06
1.09958e+06
1.01316e+06
931831
898944
900932
845458
706357
514259
446911
415525
403640
415228
448636
513846
729052
837841
883998
881347
922065
1.00431e+06
1.09471e+06
1.14099e+06
1.16301e+06
1.04495e+06
1.07439e+06
1.0581e+06
992843
914074
861389
852861
833934
768017
565375
465486
422049
409294
421468
467486
562987
762407
826126
840860
848149
905730
984913
1.05196e+06
1.07063e+06
1.03766e+06
79077.7
81539.2
81064.8
81579.6
81894.7
82280.4
82777.2
83286.6
83886.2
84683.4
85971.9
87834.7
90278.2
93181.4
96438.8
99913.9
102728
103110
93292.9
77943.8
72923.5
71271.8
70810.6
70681.6
70642.8
70641.9
70621.4
70648.1
70594.2
70670.8
78156.7
80159.4
79486.5
79904.1
80063.8
80432
80971.3
81545
82137.4
82843.1
84051.6
85927.5
88539.3
91761.5
95514.4
99622.8
103793
107483
109749
101326
79669.7
73139.2
71267.8
70799.8
70670
70648.4
70624.3
70646.9
70612.3
70655.2
77868.6
78980.6
78240.3
78648.1
78670.6
79059.1
79628.2
80238.6
80824.5
81439.6
82522.8
84343.4
87108.8
90770.5
95057.9
99563.9
104344
108933
113007
114224
100224
78556.9
72655.3
71134.6
70751.8
70667
70631.4
70644.3
70624
70645.8
77677.1
77814.1
77259.9
77440.1
77219.2
77699.3
78252.3
78928.1
79561.7
80157.1
81170.9
82994.1
85750.6
89317.7
93827.4
99113.1
104375
109242
113619
117120
117113
97454.7
77232.4
72184.6
70998.1
70724.6
70645.2
70645.1
70628.8
70641.8
77526.1
77180.6
76831.1
76699.6
76470.9
76804.4
77305.5
78013.4
78727.3
79360.8
80212.8
81909.4
84659.5
88167.4
92371.1
97251.3
103013
108881
113608
117461
120868
119347
92966.3
75834.6
71773.4
70899.3
70685.9
70651.9
70632.8
70639.4
77441.2
77052.2
76788.8
76550.8
76330.5
76521.2
76860.5
77544.4
78286.5
78935.8
79609
80914.1
83480.8
86839.3
90851.5
95437.3
100713
106742
112689
117426
121493
124676
120441
87672.6
74460.1
71447.7
70806.1
70676.2
70638.5
70639.2
77340.1
77192.5
77029.7
76741
76531.4
76585.2
76761.4
77228.9
77795.5
78319.7
78795.6
79741.5
81871.2
85174.3
89101
93515.9
98473.6
104217
110748
116820
121539
125958
128211
118560
82807.8
73296.3
71177.8
70752.2
70655.3
70642
77441.9
77430.6
77434.7
77177.8
76959
76888.9
76921.2
77248.2
77649.5
77962.5
78160.4
78473.3
80285.4
83284.1
87291.4
91681.6
96553
101992
108357
115264
121284
126140
130721
131255
111369
79262
72380.2
70990.6
70703.6
70651.9
77598.2
77691.2
77888.5
77733
77459
77347.4
77305.9
77489
77789.9
77964.9
78024.9
78039.8
78996.5
81485.4
85588
90011.8
94896.2
100193
106180
113126
120192
126094
131256
135618
133518
100777
76487
71753.2
70852.5
70683.2
77762.9
78003.6
78332
78368.4
78155.5
78065.9
78042.5
78069.7
78128.3
78127.8
78057.3
77993.8
78304.3
80161.9
83958.1
88530.3
93456
98719.2
104454
111022
118397
125472
131312
136778
140379
133914
90476.8
74365.1
71322.6
70781.1
77969.2
78304.4
78718.3
79030.3
79251.8
79376.2
79442
79220
78867.9
78509.1
78154.9
77990.2
77974.3
79316.9
82507.5
87183.6
92142.8
97423.6
103056
109251
116407
124087
131055
136940
142536
144250
128008
82532.9
72877.5
71089.3
78270.5
78586.4
79021.2
79583.7
80022.3
80359.9
80468.2
80215.8
79500.6
78644.3
78165
77923.4
77787.6
78719.9
81299
85722.2
90773.3
96074.7
101712
107720
114539
122195
130022
136875
142926
148263
146644
112593
77973.2
72074.6
78626.2
78874.6
79260.7
79704.8
80117.6
80459.5
80587.2
80426.7
79676
78665.5
77905.7
77585.2
77528.9
78032.2
80074.3
84031.2
89199.2
94469.5
100146
106161
112793
120154
128242
136169
142968
149308
153543
146196
96040.1
75372.6
79016.2
79225
79458.5
79690.3
79986.9
80310.3
80403.8
80409.9
79709.3
78702.5
77880.7
77362.7
77042.6
76941.9
78837.4
82323.7
87456.3
92684.9
98371.8
104433
110991
118131
126134
134629
142585
149411
155727
157719
135464
85394.6
79493.7
79575.9
79554.5
79558.6
79611
79896.1
80190.4
80368.4
79794.3
78878.2
77934.8
77203.8
76688.4
76569.8
77774.1
80891.1
85740
90975.4
96592.5
102631
109092
116135
123938
132498
141342
149294
155956
162904
162506
121060
79873.9
79917.1
79574.8
79401.5
79359.7
79793.4
80216.8
80441.9
80011.1
78989.5
77979.1
77169.9
76690.5
76506.4
76988.5
79733.3
84222
89501.4
94995.1
100965
107264
114277
121865
130214
139330
148470
155768
164843
177611
181768
80260
80177.8
79597.6
79396.4
79367.1
79880.6
80347.6
80509.6
80170
79045.4
77979.6
77140.4
76708
76592.1
76625
78803.8
82972.4
88346.5
93618.3
99456.7
105630
112553
119920
128053
137050
146830
154020
165894
191643
262251
80484.1
80373.7
79812.3
79610.7
79586.5
80001.2
80465.8
80668.4
80253.6
79057.4
77920.9
77155.2
76818.9
76569.8
76429.8
78083.4
82111.9
87474.8
92507.2
98181.7
104238
110914
118070
126050
134772
144529
153532
171469
211198
374463
80625.3
80541
80091.1
79923.5
79866
79922.6
80587.1
80899
80274.8
78779.4
77908
77345.9
76984.1
76583.8
76328
77298.8
81190.7
86591.4
91530.4
97075.2
102976
109338
116327
124285
132774
140821
153417
178996
237531
476094
80620
80813.8
80708.9
80159.8
79896.4
80248.6
80705.9
81017.5
80002.5
78675.4
77962.3
77468.8
77002.2
75431.3
74903.7
75358.8
79354.3
85005.3
90730.8
96119.5
101893
108079
114801
122592
131155
139039
154281
189504
266062
504863
80430.1
80733
80238.1
79842.5
79672.9
80325.4
80633.8
80506.9
79872.4
78718.6
77966.8
76775.5
75520.4
74583.4
74223.7
74450.4
78147.8
83842.1
89668.8
95184.9
100891
107036
113634
121060
129549
138768
158030
204745
298187
506673
80719.7
80656.3
80852
80032.5
79930.2
80114.1
80267.4
80364.7
79597.1
78284.2
76670.6
75322.3
74609.6
74206.3
73973.1
74097.8
77412.3
83043.4
88689
94157.5
99958
105932
112610
119749
127773
139033
163441
229363
349957
492686
78641.7
79903.4
79333
79231.4
78836.8
78913.5
78827.3
79035.1
78879.1
76518.6
75218.7
74457.5
74148.3
74040.9
73894.4
74039.5
77068.3
82356.4
87753.7
92930.9
98802.9
104802
111419
118504
125794
139901
170748
262084
417849
465966
83363.2
79669.7
80917.5
79566.4
79040.9
78376
78159.5
77758.9
76908.2
75641.8
74503.8
74016.2
73860.5
73955.2
73797.2
73859
74472.3
78886.5
84867.7
91303
97170
103435
110099
117216
124971
141151
179736
303224
436081
440921
62632.4
76843.9
78290.8
79394.2
78120.2
77204.4
76888.8
76471.6
75578.7
74623.9
74096.4
73143.6
72854.3
72866.3
71995.8
71463.4
70382.7
76142.9
82348.4
89061
95625.8
102087
108757
115953
124852
143575
192216
358196
433238
423181
70670.8
70594.2
70648.1
70621.4
70641.9
70642.6
70680.9
70807.5
71260.4
72878.6
77820.3
92945.4
102958
102648
99861.4
96396.1
93144.1
90245.1
87803.5
85941.3
84651.9
83854.3
83254.7
82746.2
82250.5
81865.9
81551.2
81039.5
81512
79056.8
70655.2
70612.3
70646.9
70624.3
70648.3
70669.4
70796.7
71255.7
73085.3
79490.1
100846
109626
107410
103734
99578.6
95477.2
91729
88509.6
85897.8
84020.6
82809.2
82102.7
81510.4
80937.4
80398.2
80029.6
79868.9
79452
80125.5
78130.9
70645.8
70624
70644.3
70631.3
70666.5
70749.4
71124.5
72608.7
78388.4
99662.2
114045
112916
108867
104293
99522.1
95024.5
90743.5
87082.7
84314.1
82490.4
81402.8
80786.7
80201.2
79591.4
79021.2
78631.5
78606.5
78199.3
78940.5
77836.8
70641.8
70628.8
70645
70644.8
70722.8
70990.3
72147.5
77077.2
96817.2
116888
116998
113529
109178
104328
99078.8
93799.7
89289.2
85721
82961.5
81135.5
80116.4
79520.5
78887.8
78214.6
77656.7
77174.6
77394.2
77213.4
77766.9
77640
70639.4
70632.8
70651.7
70684.7
70893.3
71745.6
75700.9
92309.5
119051
120726
117351
113518
108817
102969
97212.7
92333.6
88129.9
84622.8
81868.3
80167.9
79311.8
78678.7
77965.7
77254.3
76754.2
76420.8
76646.2
76773.8
77121.3
77474.2
70639.1
70638.4
70675.3
70801.9
71427
74353.3
87149.2
120022
124503
121373
117320
112612
106686
100665
95393.7
90810.6
86799.4
83442.3
80863.7
79552.3
78879.2
78226.5
77484.1
76810.4
76475.5
76280.8
76495.6
76727.5
76986.7
77370.8
70641.9
70654.8
70749.3
71163.2
73217.4
82423
117773
127989
125840
121425
116731
110685
104162
98420.1
93465.2
89054.3
85128.8
81825.7
79644.7
78703.8
78256.8
77748.8
77195
76725.7
76546.3
76486.2
76687.6
76964.7
77126.7
77287.7
70651.5
70701.8
70980.8
72326.9
79009
110354
131000
130601
126036
121186
115199
108306
101943
96504.5
91635.4
87250.6
83242.5
80243.3
78429.3
78151.1
77963
77649.2
77239.1
76902.2
76863.1
76928.5
77135
77379.4
77376.5
77405.7
70682
70846.3
71719.8
76303.6
99743.4
133188
135505
131175
125999
120130
113092
106147
100160
94866.8
89985.2
85570.8
81464.8
78985.7
78074.3
78070.1
77988.5
77813.5
77512.4
77314
77353
77454.8
77717.7
77866.1
77668.8
77577.2
70777.1
71301.9
74243.6
89742.5
133406
140236
136718
131237
125418
118380
111016
104446
98715.7
93457.7
88532
83974.4
80175.3
78348.7
78061.5
78144.8
78178.9
78175.8
78124.9
78101.8
78121.5
78207.4
78407.8
78369.8
78034.2
77764.7
71075.8
72803.4
82142.3
126892
144048
142490
136893
131009
124089
116439
109286
103093
97468.4
92194.1
87234.2
82574
79377.6
78025.8
78060.1
78205.7
78572.7
78861
79237.2
79598.2
79528.5
79395.1
79153.2
78835.8
78407.4
78037.1
72029.6
77745.5
111364
146382
148233
142914
136842
130032
122254
114612
107790
101787
96155.6
90862.2
85809.9
81392
78796.4
77739.2
77829
78138.5
78771.7
79681
80370.7
80800.4
80688.7
80328
79853.9
79234.1
78776.3
78415.5
75223.4
95178.7
145815
153493
149339
142965
136189
128314
120254
112895
106260
100244
94564.3
89302.1
84137.7
80155.6
77977.4
77489.4
77651
78036.6
78902.3
80031.4
80856.4
80962.4
80828.4
80469
80040.7
79573.3
79158
78858.6
84963.2
134353
157558
155769
149450
142623
134722
126257
118255
111107
104541
98475.6
92773.2
87546.3
82412.3
78858.3
77047.4
77222.2
77620.6
78133.7
79028.9
80255.1
80983.7
80842.8
80719.5
80374.4
80049.7
79850
79600.1
79331.8
119746
162175
162911
156031
149354
141446
132637
124071
116258
109202
102723
96675.9
91045.4
85800.5
80957.3
77670.9
76844.8
77040.9
77598.6
78299.6
79365.5
80460.8
80989.8
80733.9
80305.2
80030.1
79955.4
79962.8
80027.9
79918.4
180250
177351
164934
155874
148587
139478
130365
121989
114380
107354
101038
95065.2
89563.6
84271.7
79823.5
77190.9
76858.8
77039.2
77614.3
78439.9
79625.9
80666.6
81029.1
80768.5
80167.9
79713.4
79786.7
79995.8
80409.3
80386.9
260724
191464
165987
154165
146994
137204
128195
120032
112648
105714
99527.4
93691.5
88415.9
83037.7
78964.8
76933.6
77001.8
77159
77644.5
78544.7
79791.3
80855
81055
80830.6
80221
79684.3
79730.4
80018
80750.3
80789.9
373925
211027
171505
153694
144714
134912
126175
118176
111008
104321
98257.2
92586.1
87552.1
82188.6
78360.6
76839.3
77006.6
77392.5
77802.8
78614.9
79861.2
80964
81045.3
80824.4
80299.9
79858.4
79907.5
80199.7
80958.1
80992.6
476668
237431
179057
153583
141036
132923
124390
116432
109437
103063
97141
91597.8
86668.5
81334.5
77528.5
76698.1
77063.5
77508.1
78083.7
78752.2
79645.3
80988.8
81234.7
80912.8
80203.7
80286.1
80356.1
80533.3
81032
80980.3
505741
266084
189597
154419
139192
131316
122689
114892
108164
101964
96173.5
90745.5
85158.2
79596.7
75815.8
75534.6
76004.9
77516.3
78208.1
78805.5
79524
80672.8
81459.2
81203.9
80674.4
80483.1
80780
81427.5
81237
80984.5
507600
298405
204888
158148
138905
129689
121155
113706
107091
100914
95194.7
89655.6
84021.1
78392.6
74997.8
75001.1
75383.7
76388.8
77638.4
78665.1
79510.5
80491.9
80926.1
81190
80950.7
80274
80460.4
80855.5
81160.4
80711.4
493573
350908
229647
163613
139115
127807
119812
112634
105907
99884
94108.1
88681.5
83254.3
77794.4
74741.6
74853.4
75121
75561.9
76226.5
77530.1
79087.9
80190.7
80685
80703.5
80759.7
80726.3
80710.1
81389.8
81146.1
81045.1
466717
419023
262499
170900
140015
125914
118494
111352
104684
98668
92841.2
87740.7
82533.3
77535.6
74753.8
74832.6
75018.7
75114.5
75381
76040.1
77177.8
79415.1
79613.4
79436.6
79486.7
79264.4
79566.5
79792.4
80431.8
78971
441750
436863
303969
179925
141148
124863
117114
109924
103257
97096
91304.6
85221.8
79086.5
74990.3
74574
74576.6
74945.1
74842.9
74878.8
75212.2
76063
77301
78391.8
78740.9
78913.8
79520.8
79785.9
80894.1
80041.5
83764.9
424664
433562
359294
192424
143465
124672
115731
108492
101894
95615.2
89328.6
82723.9
76936.2
71171.1
72382.8
73002.9
73973.8
73831.9
74050
74749.8
75103.4
75937.7
76596.7
76816.7
77287
78281.4
79409.2
78390.9
77036.9
63045.1
70637
70637
70637
70637
70637
70637
70637
70637
70637
70637
70637
70637
70637
70637
70637
70637
70637
70637
70637
70637
70637
70637
70637
70637
70637
70637
70637
70637
70637
70637
70637
70637
70637
70637
70637
70637
70637
70637
70637
70637
70637
70637
70637
70637
70637
70637
70637
70637
70637
70637
70637
70637
70637.3
70644.4
70758.4
72358.3
88433.3
213579
586153
1.09151e+06
1.81405e+06
2.67214e+06
2.9976e+06
3.08808e+06
3.10028e+06
3.08567e+06
2.97809e+06
2.76775e+06
2.52941e+06
2.32197e+06
2.14631e+06
1.99393e+06
1.85975e+06
1.7452e+06
1.64606e+06
1.56037e+06
1.48425e+06
1.4143e+06
1.34785e+06
1.28483e+06
1.22445e+06
1.1664e+06
1.11072e+06
1.05693e+06
1.00647e+06
959660
915888
874619
835966
800000
766657
735618
706563
679174
652994
626961
602846
581657
562949
545871
529434
513689
499238
486204
474562
464222
455102
446989
439686
432907
426889
421625
417101
413341
409920
406745
403975
401881
400834
400547
400524
400838
402024
404911
412767
70637
70637
70637
70637
70637
70636.9
70636.9
70636.9
70636.9
70636.9
70636.9
70636.9
70636.9
70636.9
70636.9
70636.9
70636.9
70636.9
70636.9
70636.9
70636.9
70636.9
70636.9
70636.9
70636.9
70636.9
70636.9
70636.9
70636.9
70636.9
70636.9
70636.9
70636.9
70636.9
70636.9
70636.9
70636.9
70636.9
70636.9
70636.9
70636.9
70636.9
70636.9
70636.9
70636.9
70636.9
70636.9
70636.9
70636.9
70636.9
70637
70637.3
70646.6
70819
73592
108321
311516
566243
731873
851429
993651
1.14714e+06
1.29661e+06
1.46549e+06
1.65833e+06
1.88033e+06
2.26651e+06
2.56185e+06
2.62931e+06
2.6209e+06
2.57469e+06
2.47806e+06
2.34128e+06
2.1714e+06
1.98645e+06
1.79961e+06
1.62928e+06
1.49156e+06
1.37715e+06
1.28e+06
1.19707e+06
1.12482e+06
1.06076e+06
1.00346e+06
952279
905998
863800
825638
790961
758914
728782
700316
673506
648407
624827
602559
581406
562190
545687
530914
516907
503614
491521
480508
470587
461785
454018
447109
441032
435606
430983
426918
423307
420052
417744
416412
415871
415859
415994
417041
419068
424817
429559
432381
432780
70637
70637
70637
70637
70637
70637
70637
70637
70637
70636.9
70636.9
70636.9
70636.9
70636.9
70636.9
70636.9
70636.9
70636.9
70636.9
70636.9
70636.9
70636.9
70636.9
70636.9
70636.9
70636.9
70636.9
70636.9
70636.9
70636.9
70636.9
70636.9
70636.9
70636.9
70636.9
70636.9
70636.9
70636.9
70636.9
70636.9
70636.9
70636.9
70637
70637
70637
70637
70637
70637
70637
70637
70637.3
70648
70879.9
75109.4
139648
422260
630377
712519
750993
787728
833011
879913
934338
981471
1.02092e+06
1.06742e+06
1.13161e+06
1.22604e+06
1.34792e+06
1.50551e+06
1.69561e+06
1.9182e+06
2.16199e+06
2.23237e+06
2.23718e+06
2.21037e+06
2.11568e+06
1.91404e+06
1.70852e+06
1.53025e+06
1.37603e+06
1.24665e+06
1.1405e+06
1.05532e+06
987481
931960
883611
840262
800801
764452
730907
700001
671536
645430
621512
599530
579239
560382
543874
529462
515928
503182
491611
481380
472676
465490
459563
454581
450290
446329
443632
442878
443711
447363
451977
456650
460664
462913
463988
464681
467614
468614
465255
449930
411719
70637
70637
70637
70637
70637
70637
70637
70637
70637
70637
70637
70636.9
70636.9
70636.9
70636.9
70636.9
70636.9
70636.9
70636.9
70636.9
70636.9
70636.9
70636.9
70637
70637
70637
70637
70637
70637
70637
70637
70637
70637
70637
70637
70637
70637
70637
70637
70637
70637
70637
70637
70637
70637
70637
70637
70637
70637
70637.3
70647.9
70913.9
76250.3
164981
497555
681243
732005
745986
753079
767117
784229
796841
810398
815095
820980
825519
832332
845858
866040
885935
901325
915420
941102
979849
1.05211e+06
1.1613e+06
1.29314e+06
1.49757e+06
1.60041e+06
1.6005e+06
1.56198e+06
1.43677e+06
1.30667e+06
1.19406e+06
1.09832e+06
1.01329e+06
939605
876626
823738
778562
739611
705372
674994
647990
623679
601573
581370
562736
546190
531569
518069
506027
495688
487017
480497
476315
474114
473766
474453
476471
478244
478098
475754
472705
469863
467679
465235
461803
454644
432884
386242
337002
286862
240960
210604
70637
70637
70637
70637
70637
70637
70637
70637
70637
70637
70637
70637
70637
70636.9
70636.9
70636.9
70636.9
70636.9
70636.9
70636.9
70637
70637
70637
70637
70637
70637
70637
70637
70637
70637
70637
70637
70637
70637
70637
70637
70637
70637
70637
70637
70637
70637
70637
70637
70637
70637
70637
70637
70637.2
70646.3
70904.8
76493.7
174829
527956
706262
749751
756301
752496
755185
761662
767410
769417
768513
762738
757936
749782
741032
730148
718260
704567
684044
663539
641036
615141
595023
590350
597297
632770
688316
768495
863356
998378
1.11217e+06
1.15313e+06
1.12223e+06
1.04766e+06
975191
911800
859147
813905
772928
734801
699860
668493
640927
616931
596052
577625
560365
545275
532118
521782
513212
505774
499518
494094
489578
485676
482317
479868
478145
475360
469680
459310
433547
391548
344638
295225
247556
210162
188954
173408
161560
152988
147209
70637
70637
70637
70637
70637
70637
70637
70637
70637
70637
70637
70637
70637
70637
70637
70637
70637
70637
70637
70637
70637
70637
70637
70637
70637
70637
70637
70637
70637
70637
70637
70637
70637
70637
70637
70637
70637
70637
70637
70637
70637
70637
70637
70637
70637
70637
70637
70637.2
70643.9
70858.1
75836.7
169945
528826
713110
758900
767992
760890
755104
757768
760396
761361
760989
754372
749118
739355
726803
711172
691259
668392
638074
602799
565755
529714
493053
460522
431662
409242
395904
388690
385681
391815
413215
442676
484511
555402
648561
719840
767367
789447
782112
753583
721842
690888
661936
635807
612634
592248
574021
557153
541565
527397
515265
504603
494946
486415
478497
470096
458969
438566
402485
359401
313530
267979
224934
193192
174304
159791
148498
140086
134552
130749
128129
126354
125360
124766
70637
70637
70637
70637
70637
70637
70637
70637
70637
70637
70637
70637
70637
70637
70637
70637
70637
70637
70637
70637
70637
70637
70637
70637
70637
70637
70637
70637
70637
70637
70637
70637
70637
70637
70637
70637
70637
70637