/*--------------------------------*- C++ -*----------------------------------*\
| =========                 |                                                 |
| \\      /  F ield         | OpenFOAM: The Open Source CFD Toolbox           |
|  \\    /   O peration     | Version:  2112                                  |
|   \\  /    A nd           | Website:  www.openfoam.com                      |
|    \\/     M anipulation  |                                                 |
\*---------------------------------------------------------------------------*/
FoamFile
{
    version     2.0;
    format      ascii;
    arch        "LSB;label=32;scalar=64";
    class       volScalarField;
    location    "0.00285";
    object      T;
}
// * * * * * * * * * * * * * * * * * * * * * * * * * * * * * * * * * * * * * //

dimensions      [0 0 0 1 0 0 0];

internalField   nonuniform List<scalar> 
13875
(
1411.93
1535.36
1482.68
1486.77
1481.05
1483.5
1483.46
1483.16
1484.06
1483.8
1484.38
1484.11
1484.13
1484.2
1484.42
1483.63
1484.2
1482.49
1483.28
1483.45
1480.86
1487.54
1480.74
1532.56
1396.87
1307.02
1356.13
1319.18
1322.08
1316.53
1317.15
1317.06
1317.81
1322.59
1323.08
1323.54
1322.81
1319.47
1318.68
1322.77
1322.87
1322.83
1318.36
1317.04
1317.05
1316.19
1322.02
1319.72
1355.99
1303.8
1307.2
1339.89
1314.54
1311.01
1303.82
1304.21
1303.61
1303.5
1304.85
1306.27
1306.95
1306.36
1305.97
1305.82
1306.33
1306.08
1305.9
1303.24
1303.48
1304.1
1303.49
1310.89
1311.6
1336.51
1298.42
1317.33
1344.83
1314.98
1308.58
1304.97
1304.66
1303.79
1303.63
1303.77
1304.52
1305.74
1305.72
1306.1
1305.67
1305.77
1304.3
1304.21
1303.27
1303.62
1304.48
1304.31
1307.62
1314.09
1343.96
1311.92
1329.49
1341.97
1315.98
1311.63
1303.37
1304.01
1303.88
1303.71
1303.57
1304.46
1305.92
1305.68
1306.32
1305.99
1306.01
1304.49
1304.14
1303.38
1303.79
1304.01
1303.14
1311.52
1312.27
1338.45
1315.86
1332.21
1351.2
1319.16
1309.78
1306.87
1306.05
1304.78
1304.27
1304.16
1304.72
1305.76
1306.25
1306.79
1306.39
1305.89
1304.61
1304.5
1303.94
1304.65
1305.9
1306.14
1308.36
1319.12
1349.02
1325.89
1339.04
1360.41
1329.23
1316.78
1306.83
1306.24
1305.37
1304.82
1304.63
1305.01
1306.47
1306.79
1307.29
1307.04
1306.61
1305.22
1305.02
1304.45
1305.27
1306.19
1306.6
1317.28
1326.12
1358.36
1321.52
1360.21
1385.01
1344.81
1321.36
1316.19
1311.94
1308.91
1307.34
1306.45
1306.5
1307.31
1307.89
1308.63
1308.43
1307.56
1306.32
1306.65
1306.73
1308.5
1311.45
1314.98
1320.71
1341.65
1381.18
1350.92
1536.49
1507.94
1387.49
1350.83
1323.05
1316.3
1312.63
1310.56
1309.25
1309.09
1309.82
1310.42
1311.49
1311.32
1310.25
1309.05
1309.38
1309.67
1312.1
1315.69
1321.91
1348.3
1384.44
1508.08
1524.01
1840.27
1578.14
1432.04
1364.85
1344.14
1328.03
1321.4
1318
1315.78
1315.14
1315.44
1316.11
1317.5
1317.22
1316.2
1315.12
1315.77
1316.81
1320.41
1327.61
1340.34
1363.57
1427.66
1568.24
1831.36
2508.34
1803.63
1526.75
1441.11
1362.94
1345.92
1336.8
1332
1329.36
1328.35
1328.18
1328.75
1330.53
1330.05
1329.29
1328.49
1329.51
1331.02
1335.35
1344.87
1360.79
1428.32
1515.38
1809.95
2446.34
2869.74
2276.68
1840.46
1504.23
1438.62
1400.83
1376.45
1368.06
1362.34
1360.19
1359.38
1359.58
1361.53
1360.97
1360.71
1360.75
1362.84
1367.72
1374.88
1402.59
1429.37
1489.35
1759.55
2307.64
2848.81
2830.04
2680.55
2520.79
2344.65
1605.25
1517.94
1495.13
1475.49
1465.51
1462.04
1461.01
1461.08
1463.43
1462.57
1462.9
1463.57
1467.41
1477.39
1495.89
1527.1
1633.8
2344.05
2418.91
2715.48
2787.79
2729.35
2673.63
2854.85
2830.85
2138.12
2143.74
1952.23
1860.52
1800.21
1785.04
1779.96
1777
1781.86
1781.01
1783.56
1789.7
1810.74
1875.95
1988.4
2167.28
2160.08
2846.51
2860.31
2728.93
2710.16
2660.55
2698.55
2827.76
2813.29
2819.49
2984.26
3344.86
3281.63
3451.03
3430.26
3496.49
3467.33
3514.27
3479.75
3500.5
3451.47
3473.95
3331.4
3371.61
3079.65
2859.51
2846.09
2843.62
2705.36
2671.99
2529.01
2607.62
2833.77
2957.63
2995.58
3328.56
3600.03
3701.61
3685.96
3674.7
3642.87
3645.07
3628.12
3646.78
3641.62
3668.41
3689.81
3720.02
3630.55
3380.43
3030.51
2954.56
2858.76
2654.4
2577.3
2462.79
2570.22
2703.59
2886.17
2994.5
3305.22
3575.76
3677.71
3665.74
3654.87
3619.85
3623.37
3609.11
3625.1
3619.64
3650.67
3675.16
3700.73
3618.52
3407.07
3020.52
2942.11
2756.38
2600.58
2488.27
2263.04
2513.15
2830.07
2958.5
2964.27
3196.13
3386.32
3479.32
3492.05
3506
3497.98
3501.37
3497.61
3504.48
3502.66
3510.09
3501.29
3481.2
3388.26
3197.88
2973.95
2966.59
2817.06
2503.08
2276.64
2182.61
2266.37
2584.53
2759.83
2741.2
2878.81
3115.33
3307.37
3378.65
3401.17
3404.45
3409.09
3408.58
3413.36
3406.52
3404.23
3395.74
3343.29
3152.96
2900.63
2758.57
2776.3
2613.08
2282.19
2199.55
2279.83
2226.76
2363.75
2505.75
2539.83
2626
2842.99
3092.16
3242.67
3302.68
3310.91
3319.34
3319.6
3321.95
3313.19
3311.61
3269.61
3123.99
2860.52
2643.85
2561.86
2532.41
2323.61
2216.05
2296.15
2912.03
2271.18
2173.66
2307.71
2380.01
2464.54
2665.83
2911.39
3090.4
3183.02
3211.2
3219.45
3221.97
3222.78
3215.38
3194.37
3111.46
2924.18
2667.93
2476.49
2397.34
2313.9
2149.87
2254.07
2936.54
2906.15
2051.25
1971.19
2154.64
2249.95
2352.06
2529.16
2762.47
2956.22
3066.27
3099.02
3114.07
3115.37
3116.82
3101.47
3073.47
2967.53
2763.67
2528.8
2366.32
2261.55
2154.57
1962.74
2039.25
2892.04
2905.55
2061.78
1882.46
2038.88
2150.13
2265.58
2412.56
2627.09
2820.29
2945.59
2991.68
3003.4
3007.98
3006.11
2994.62
2954.39
2833.72
2631.77
2417.51
2281.78
2161.93
2039.95
1852.87
2049.53
2971.54
2826.67
2038.48
1870.56
1982.81
2075.36
2181.42
2321.84
2526.79
2713.15
2833.88
2878.33
2897.66
2899.76
2900.15
2880.27
2842.02
2726.81
2530.47
2322.38
2191.05
2083.72
1985.56
1855.81
2017.53
2834.49
2757.52
2034.92
1897.49
1949.18
2014.16
2102.12
2232.57
2432.29
2607.96
2729.34
2777.77
2790.4
2796.21
2793.23
2780.72
2735.71
2616.13
2429.89
2230.3
2107.55
2030.79
1955.24
1877.03
2032.28
2805.73
2733.56
2054.84
1917.42
1934.19
1968.33
2034.56
2165.06
2354.19
2520.69
2630.04
2672.22
2692.14
2694.43
2694.77
2674.19
2636.93
2531.91
2355.91
2164.23
2037.56
1975.98
1946.27
1896.8
2040.25
2744.87
2704.49
2082.72
1940.54
1927.35
1926.35
1977.86
2100.49
2281.84
2434.1
2538.98
2583.71
2593.34
2599.27
2595.06
2584.97
2544.15
2443.1
2280.87
2099.91
1980.4
1936.8
1938.88
1934.65
2083.86
2728.69
2705.28
2150.98
1979.98
1928.83
1899.66
1936.28
2060.41
2227.72
2366.53
2453.32
2488.74
2505.73
2507.7
2507.89
2488.25
2457.32
2372.14
2222.38
2053.93
1935.77
1903.86
1939.3
1964.66
2138.58
2730.44
2733.02
2159.84
1976.8
1921.11
1882.19
1904.17
2011.81
2164.76
2287.55
2372.27
2412.1
2417.39
2423.66
2417.6
2412.39
2377.1
2300.88
2167.79
2012.7
1908.5
1892.15
1931.73
1984.31
2123.96
2724.47
2774.88
2173.36
1996.98
1926.76
1868.19
1884.75
1992.87
2126.91
2235.68
2301.56
2328.06
2342.05
2342.48
2341.73
2324.78
2302.36
2242.03
2125.65
1986.07
1885.4
1873.64
1933.69
1989.97
2159.13
2769.16
2745.9
2171.17
1982.42
1920.72
1848.68
1875.95
1964
2080.91
2172.03
2229.85
2264.45
2262.16
2269.53
2262.54
2261.23
2231.26
2179.46
2080.45
1956.99
1872.89
1858.47
1926.71
1994.24
2156.94
2761.85
2739.17
2178.17
2016.26
1931.29
1841.52
1859.74
1947.43
2051.94
2130.06
2172.36
2188.59
2198.48
2198.85
2198.28
2184.03
2170.99
2135.32
2055.79
1944.05
1858.62
1850.16
1927.56
2001.04
2168.76
2731.1
2718.25
2177.26
2029.26
1915.33
1833.46
1854.21
1927.49
2013.95
2076.62
2108.09
2136.99
2128.4
2136.34
2128.54
2131.92
2107.6
2079.38
2015.04
1923.32
1848.69
1840.33
1923.41
2024.78
2162.13
2721.91
2689.3
2171.33
2077.79
1941.84
1840.48
1841.29
1917.72
1994.32
2042.87
2063.27
2070.74
2075.09
2075.45
2075.54
2064.94
2060.39
2043.68
1994.69
1913.1
1834.1
1842.16
1934.79
2056.07
2166.91
2694.24
2685.59
2179.97
2103.67
1930.27
1847.71
1835.71
1897.81
1957.8
1990.69
2005.06
2029.12
2014.81
2022.71
2014.7
2024.08
2004.6
1994.1
1962.48
1900.89
1828.6
1853.16
1937.66
2116.68
2160.32
2670.54
2661.69
2171.75
2098.6
1962.59
1864.73
1831.36
1884.93
1938.14
1963.88
1972.26
1972.18
1972.31
1971.46
1972.06
1966.68
1969.06
1964.57
1941.09
1889.49
1822.3
1865.61
1963.41
2114.92
2168.18
2642.7
2631.14
2159.92
2096.05
1978.25
1876.62
1837.92
1875.52
1903.24
1916.51
1918.95
1939.35
1919.67
1927.94
1920.08
1935.67
1920.19
1919.06
1909.09
1882.64
1825.41
1875.49
1990.88
2112.12
2154.88
2617.25
2609.17
2144.31
2088.8
2042.28
1902.47
1850.52
1862.02
1883.4
1892.85
1894.72
1890.44
1886.88
1885.17
1887.3
1886.47
1892.52
1895.82
1889.2
1880.05
1848.11
1896.91
2047.06
2102.93
2138.51
2587.74
2590.32
2135.08
2077.84
2030.44
1916.42
1863.79
1861.96
1856.57
1852.59
1845.16
1864.02
1840.95
1849.66
1842.18
1860.93
1847.96
1855.82
1863.97
1880.26
1865.56
1923.38
2046.85
2089.99
2120.97
2577.76
2561.45
2114.2
2048.9
2032.82
1963.67
1885.66
1870.89
1844.83
1836.01
1830.74
1822.68
1815.36
1813.96
1816.89
1818.73
1828.23
1839.66
1849.99
1894.75
1889.01
1966.32
2041.48
2053.65
2113.06
2557.32
2552.77
2109.01
2019.51
2017.25
2018.39
1911.22
1889.08
1832.37
1806.63
1785.13
1801.17
1775.79
1784.43
1776.84
1798.5
1787.81
1810.31
1840.88
1914.71
1916.59
2034.17
2034.46
2022.1
2094.65
2537.84
2528.02
2098.07
1993.09
2008.27
2023.46
1942.41
1890.06
1846.76
1799.86
1782.71
1766.85
1756.59
1754.67
1757.13
1763.07
1781.29
1804.75
1847.74
1926.2
1963.12
2033.78
2019.62
1996.72
2091.61
2515.83
2511.89
2088.46
1974.07
1971.75
2007.07
2004.42
1918.91
1852.46
1788.84
1741.71
1750.52
1721.69
1730.28
1723.02
1748.22
1745.12
1791.53
1853.8
1952.24
2026.59
2013.68
1985.42
1979.31
2085.29
2500.44
2482.98
2082.71
1957.91
1945.56
1999.05
2039.15
1939.1
1871.9
1797.01
1761.22
1726.16
1708.43
1705.69
1709.59
1722.02
1761.05
1799.21
1865.55
1988.73
2051.03
2001.96
1957.27
1962.29
2069
2469.15
2470.41
2079.29
1951.09
1913.16
1960.67
2023.13
1999.42
1887.98
1798.24
1722.78
1720.18
1680.9
1687.26
1682.59
1718.37
1730.6
1806.44
1888.13
2064.78
2037.1
1954.67
1926.92
1956.47
2068.85
2454.68
2440.47
2058.08
1937.36
1896.04
1931.25
2010.79
2079.09
1942.2
1811.94
1767.21
1716.58
1682.83
1673.19
1683.31
1710.22
1765.58
1819.21
1928.71
2087.82
2011.1
1926.95
1906.29
1944.57
2053.87
2424.74
2427.06
2056.3
1935.26
1876.68
1893.98
1983.57
2060.69
2024.09
1836.43
1732.36
1721.49
1667.09
1668.32
1668.73
1717.63
1736.43
1844.73
2013.42
2072.59
1978.71
1892.09
1890.99
1941.29
2045.33
2413.89
2389.06
2035.13
1920.4
1870.61
1878.54
1943.27
2045.18
2067.88
1881.57
1784.76
1721.46
1683.99
1669.53
1686.1
1715.09
1785.07
1900.54
2058.5
2052.14
1932.31
1877.5
1880.7
1928.09
2029.77
2369.77
2357.9
2023.92
1913
1857.43
1856.42
1914.55
2016.69
2051.62
1987.95
1764.93
1735.07
1668.56
1672.56
1670.59
1731.84
1768.47
2009.41
2047.47
2024.66
1903.01
1855.89
1871.36
1921.05
2017.72
2343.48
2216.98
1975.72
1886.89
1851.48
1852.49
1879.86
1976.09
2036.54
2013.91
1867.09
1753.26
1696.48
1680.35
1697.98
1748.16
1863.57
2010.94
2030.72
1983.78
1872.03
1850.37
1861.09
1896.15
1968.45
2201.53
283.239
285.582
285.349
285.882
286.2
286.641
287.182
287.797
288.491
289.404
290.798
292.716
295.122
297.892
300.945
304.18
306.938
308.231
300.64
282.796
276.65
274.73
274.199
274.051
274.011
274.003
273.997
274.001
273.996
274
282.126
283.608
283.25
283.7
283.886
284.341
284.942
285.601
286.25
287.037
288.309
290.221
292.81
295.911
299.375
303.021
306.641
309.858
312.533
307.876
284.524
276.918
274.737
274.19
274.041
274.011
273.995
274.002
273.99
274.01
282.006
282.763
282.279
282.649
282.706
283.171
283.824
284.553
285.241
285.988
287.171
289.058
291.816
295.36
299.38
303.48
307.703
311.65
315.165
317.107
307.409
283.245
276.357
274.58
274.136
274.033
273.999
274.002
273.992
274.009
281.713
281.645
281.314
281.418
281.237
281.796
282.456
283.267
284.023
284.767
285.896
287.816
290.611
294.114
298.378
303.195
307.831
312.01
315.667
318.623
319.968
305.014
281.714
275.809
274.422
274.1
274.013
274.005
273.995
274.006
281.635
281.043
280.91
280.664
280.518
280.927
281.557
282.417
283.285
284.097
285.077
286.904
289.741
293.253
297.308
301.826
306.93
311.934
315.856
318.962
321.822
322.593
300.472
280.08
275.33
274.304
274.06
274.015
273.998
274.004
281.567
280.957
280.879
280.536
280.415
280.702
281.185
282.044
282.978
283.836
284.667
286.131
288.825
292.25
296.185
300.509
305.272
310.472
315.4
319.221
322.388
325.158
324.756
294.463
278.475
274.946
274.199
274.044
274.004
274.004
281.468
281.161
281.161
280.791
280.706
280.885
281.233
281.897
282.672
283.416
284.067
285.204
287.502
290.929
294.849
299.087
303.643
308.681
314.15
319.04
322.746
326.113
328.403
324.812
288.579
277.114
274.633
274.133
274.023
274.007
281.577
281.461
281.607
281.316
281.255
281.354
281.59
282.151
282.787
283.334
283.713
284.197
286.212
289.379
293.447
297.733
302.286
307.142
312.548
318.152
322.865
326.55
330.051
331.593
319.877
284.263
276.045
274.412
274.079
274.019
281.753
281.782
282.103
281.968
281.906
282.017
282.226
282.676
283.228
283.651
283.91
284.13
285.232
287.934
292.154
296.54
301.171
305.972
311.132
316.831
322.374
326.876
330.681
334.102
334.858
310.075
280.932
275.306
274.251
274.054
281.918
282.135
282.576
282.712
282.798
283.002
283.276
283.604
283.923
284.173
284.312
284.479
284.938
286.999
290.961
295.557
300.282
305.109
310.111
315.566
321.397
326.771
331.095
335.068
338.184
337.545
298.504
278.394
274.799
274.166
282.152
282.49
283.016
283.522
284.16
284.662
285.091
285.199
285.093
284.965
284.839
284.914
285.059
286.616
289.982
294.731
299.547
304.442
309.409
314.619
320.336
326.19
331.322
335.538
339.617
341.946
335.627
288.536
276.625
274.518
282.448
282.8
283.37
284.252
285.193
285.985
286.507
286.627
286.174
285.58
285.345
285.334
285.385
286.525
289.294
293.838
298.804
303.778
308.817
313.939
319.448
325.318
331.056
335.969
340.197
344.201
345.413
323.439
282.793
275.646
282.85
283.177
283.74
284.632
285.64
286.511
287.083
287.332
286.874
286.164
285.64
285.541
285.703
286.394
288.649
292.786
297.931
302.952
308.104
313.291
318.7
324.382
330.329
335.951
340.72
345.142
348.574
348.168
305.645
279.464
283.217
283.572
284.077
284.96
285.965
286.898
287.468
287.923
287.546
286.883
286.32
286.021
285.893
285.95
288.068
291.773
296.963
302.018
307.244
312.522
317.916
323.467
329.394
335.433
340.977
345.699
350.088
352.707
343.59
291.418
283.791
284.076
284.465
285.336
286.187
287.176
288.015
288.673
288.498
287.96
287.294
286.786
286.45
286.526
287.908
291.259
296.185
301.287
306.438
311.723
317.108
322.652
328.502
334.629
340.761
346.233
350.802
355.521
358.896
330.788
284.085
284.508
284.825
285.786
286.765
288.067
289.188
289.985
290.082
289.455
288.726
288.133
287.814
287.824
288.403
291.372
295.983
301.121
306.166
311.372
316.595
322.155
327.862
333.895
340.223
346.4
351.317
357.241
366.855
375.596
284.639
285.07
285.468
286.804
288.194
289.967
291.508
292.484
292.795
291.958
291.074
290.302
289.893
289.842
289.854
292.143
296.345
301.561
306.388
311.455
316.555
322.031
327.527
333.335
339.555
346.195
351.019
358.681
375.68
417.411
284.78
285.543
286.564
288.784
291.35
293.838
296.15
297.444
297.735
296.445
295.063
293.965
293.181
292.684
292.162
293.66
297.613
302.721
307.198
312.032
316.974
322.148
327.481
333.183
339.122
345.623
351.658
363.481
390.051
465.902
285.151
286.498
288.779
293.251
298.173
301.908
305.348
307.118
306.725
304.001
301.836
300.08
298.427
297.106
295.998
296.288
299.77
304.589
308.743
313.242
317.908
322.662
327.72
333.385
339.145
344.369
352.77
369.552
408.083
499.696
285.124
287.88
293.356
302.764
313.015
319.383
323.861
325.519
322.701
317.648
313.723
310.404
307.143
303.109
300.56
299.355
302.297
306.891
311.382
315.405
319.672
324.107
328.725
334.089
339.8
344.929
355.133
377.74
423.845
507.26
285.964
290.756
303.568
327.11
346.697
356.439
360.104
359.724
352.265
341.989
334.292
326.759
319.034
313.009
308.527
305.472
306.962
310.811
314.784
318.481
322.254
326.364
330.68
335.505
340.988
346.926
360.051
389.082
439.244
509.365
285.079
297.695
331.422
390.932
420.189
426.224
422.915
415.303
398.347
378.425
363.216
349.663
337.665
328.385
320.802
315.372
314.51
316.846
319.481
322.273
325.55
329.058
333.115
337.452
342.4
349.816
366.859
405.945
464.588
507.079
295.033
316.481
414.596
515.71
538.849
521.761
509.584
489.63
458.385
424.106
400.884
381.15
363.682
349.608
338.073
329.425
325.761
325.532
326.038
327.094
329.494
332.393
335.989
339.904
343.948
353.528
375.496
426.94
493.781
501.091
278.746
379.654
601.48
668.168
675.666
634.865
622.652
577.898
524.826
481.974
448.911
420.373
396.026
375.763
359.445
346.754
337.296
333.959
333.288
333.491
334.354
336.412
339.381
342.887
347.095
358.077
385.844
451.78
499.794
495.768
313.047
556.245
813.121
820.817
829.647
778.161
737.927
680.409
598.577
552.441
508.121
467.535
435.687
407.203
383.204
364.502
348.819
344.999
342.569
341.835
341.335
341.864
343.581
346.415
351.23
364.142
398.744
481.029
500.193
493.253
274
273.996
274.001
273.997
274.003
274.01
274.051
274.196
274.717
276.598
282.64
300.282
308.114
306.869
304.13
300.902
297.853
295.086
292.682
290.765
289.37
288.457
287.763
287.149
286.609
286.169
285.852
285.322
285.555
283.216
274.01
273.99
274.002
273.995
274.011
274.04
274.186
274.723
276.855
284.311
307.433
312.45
309.792
306.585
302.976
299.335
295.875
292.777
290.188
288.275
287
286.213
285.564
284.905
284.305
283.849
283.663
283.213
283.572
282.097
274.009
273.992
274.002
273.999
274.032
274.133
274.568
276.302
283.045
306.856
316.984
315.087
311.588
307.652
303.436
299.343
295.328
291.785
289.024
287.134
285.947
285.199
284.512
283.784
283.131
282.664
282.605
282.235
282.721
281.97
274.006
273.995
274.005
274.013
274.098
274.413
275.766
281.53
304.344
319.822
318.521
315.585
311.947
307.782
303.156
298.345
294.08
290.575
287.778
285.854
284.721
283.977
283.223
282.414
281.75
281.189
281.369
281.263
281.596
281.672
274.004
273.998
274.015
274.058
274.297
275.298
279.921
299.723
322.403
321.703
318.861
315.771
311.87
306.88
301.781
297.264
293.209
289.697
286.855
285.025
284.041
283.23
282.364
281.5
280.873
280.464
280.607
280.849
280.981
281.581
274.004
274.004
274.043
274.194
274.922
278.349
293.821
324.477
325.019
322.278
319.122
315.323
310.411
305.217
300.458
296.136
292.202
288.777
286.07
284.599
283.769
282.908
281.975
281.129
280.652
280.361
280.477
280.813
280.888
281.493
274.007
274.022
274.13
274.616
277.021
288.095
324.201
328.239
326.005
322.637
318.951
314.081
308.618
303.582
299.028
294.793
290.873
287.446
285.089
283.961
283.344
282.619
281.858
281.192
280.842
280.657
280.735
281.092
281.093
281.41
274.018
274.076
274.4
275.982
283.951
318.942
331.432
329.938
326.442
322.764
318.078
312.487
307.081
302.225
297.673
293.392
289.323
286.154
284.144
283.695
283.327
282.779
282.136
281.566
281.325
281.221
281.271
281.55
281.406
281.54
274.053
274.244
275.267
280.708
308.942
334.687
334.002
330.589
326.774
322.299
316.78
311.084
305.923
301.126
296.499
292.122
287.898
285.208
284.155
283.945
283.665
283.243
282.694
282.229
282.021
281.9
281.952
282.081
281.76
281.729
274.162
274.775
278.248
297.587
337.27
338.073
334.989
331
326.697
321.352
315.534
310.078
305.082
300.263
295.54
290.959
286.997
284.969
284.536
284.389
284.214
283.96
283.653
283.334
283.057
282.852
282.754
282.617
282.169
281.919
274.502
276.537
288.029
334.788
341.824
339.552
335.46
331.251
326.157
320.33
314.619
309.415
304.457
299.571
294.758
290.028
286.66
285.09
284.97
284.871
285.013
285.069
285.202
285.249
284.82
284.309
283.65
283.139
282.599
282.224
275.594
282.512
322.232
345.31
344.156
340.145
335.9
331.022
325.326
319.474
313.967
308.851
303.82
298.859
293.899
289.364
286.581
285.306
285.208
285.293
285.694
286.352
286.776
286.842
286.32
285.506
284.531
283.591
282.998
282.598
279.289
304.612
348.027
348.535
345.123
340.664
335.915
330.334
324.417
318.747
313.341
308.154
303.003
297.994
292.861
288.704
286.294
285.64
285.594
285.766
286.394
287.228
287.77
287.453
286.879
285.995
284.975
284.064
283.471
283.091
290.897
342.775
352.644
350.083
345.676
340.951
335.447
329.437
323.52
317.971
312.577
307.299
302.065
297.019
291.831
288.047
286.05
286.049
286.267
286.564
287.215
288.098
288.503
287.913
287.31
286.357
285.328
284.477
283.959
283.541
329.553
358.786
355.507
350.806
346.218
340.774
334.672
328.553
322.704
317.156
311.761
306.473
301.319
296.211
291.294
287.77
286.792
286.8
287.175
287.653
288.453
289.173
289.303
288.571
287.59
286.615
285.747
284.885
284.539
284.224
374.705
366.705
357.263
351.338
346.415
340.26
333.943
327.901
322.183
316.62
311.387
306.185
301.137
295.988
291.423
288.584
288.162
288.155
288.565
289.183
290.095
290.757
290.591
289.76
288.456
287.132
286.19
285.264
285.013
284.611
416.769
375.531
358.689
351.05
346.231
339.589
333.369
327.547
322.047
316.566
311.458
306.394
301.569
296.351
292.257
290.127
290.226
290.325
290.794
291.646
292.728
293.505
293.061
292.05
290.345
288.544
287.167
285.904
285.652
285.176
465.851
389.883
363.444
351.698
345.675
339.149
333.207
327.497
322.162
316.976
312.029
307.199
302.725
297.624
293.881
292.545
293.088
293.725
294.616
295.788
297.302
298.525
297.917
296.639
294.246
291.719
289.158
286.994
286.133
285.298
499.987
408.015
369.533
352.812
344.447
339.183
333.395
327.731
322.667
317.905
313.222
308.716
304.579
299.822
296.452
296.329
297.581
298.974
300.9
302.81
305.054
307.672
307.686
306.036
302.48
298.875
293.898
289.323
287.007
285.517
507.565
423.874
377.739
355.148
344.962
339.849
334.086
328.707
324.088
319.64
315.353
311.292
306.921
302.431
299.735
301.139
303.711
307.622
311.342
314.794
318.95
323.881
326.554
325.222
320.664
314.353
303.946
294.295
288.348
285.484
509.674
439.353
389.096
360.045
346.948
341.01
335.473
330.636
326.3
322.159
318.364
314.643
310.858
307.075
305.96
309.33
313.922
320.062
328.028
335.385
343.783
353.865
361.296
362.632
358.913
349.342
329.41
304.949
291.346
286.297
507.39
465.035
406.026
366.866
349.773
342.32
337.404
333.024
328.918
325.348
322.081
319.306
316.883
314.753
315.954
321.789
329.577
339.071
351.528
364.62
381.164
400.674
417.726
426.711
430.381
425.105
396.18
334.153
298.644
285.408
501.399
494.232
427.098
375.513
353.521
343.935
339.779
335.81
332.152
329.201
326.8
325.79
325.441
326.047
330.058
339.246
351.115
365.319
383.902
402.414
427.646
462.161
493.071
515.189
525.804
546.514
523.963
422.085
318.606
295.747
496.212
500.084
452.089
385.878
357.96
346.882
342.673
339.085
336.076
334.04
333.231
333.316
333.805
337.656
347.539
360.6
377.638
398.076
423.91
450.656
484.799
531.27
583.624
628.268
641.392
684.714
677.849
613.815
385.339
279.703
493.739
500.355
481.463
398.785
363.941
350.947
346.08
343.161
341.451
341.03
341.756
342.691
345.628
349.651
365.677
384.978
409.719
438.393
471.958
510.972
554.43
604.924
688.831
740.947
782.516
842.624
834.349
826.553
564.652
314.928
274.002
274.002
274.002
274.002
274.002
274.002
274.002
274.002
274.002
274.002
274.002
274.002
274.002
274.002
274.002
274.002
274.002
274.002
274.002
274.002
274.002
274.002
274.002
274.002
274.002
274.002
274.002
274.002
274.002
274.002
274.002
274.002
274.002
274.002
274.002
274.002
274.002
274.002
274.002
274.002
274.002
274.002
274.002
274.002
274.002
274.002
274.002
274.002
274.002
274.002
274.002
274.002
274.003
274.011
274.141
276.186
303.708
481.076
735.744
893.584
1045.22
1164.9
1189.03
1193.35
1193.73
1192.21
1178.95
1152
1121.02
1093.1
1068.47
1045.79
1024.28
1004.48
986.147
969.198
953.223
937.842
922.324
906.675
891.35
876.42
861.618
846.5
831.3
816.625
802.598
788.549
774.592
761.039
748.178
735.972
724.206
712.733
701.258
689.424
677.81
666.75
656.164
645.874
635.621
625.425
615.499
605.87
596.632
587.793
579.382
571.57
564.322
557.217
550.494
544.132
538.158
532.732
527.549
522.592
517.893
513.523
509.583
505.943
502.406
499.064
496.094
493.781
493.226
274.001
274.001
274.001
274.001
274.001
274.001
274.001
274.001
274.001
274.001
274.001
274.001
274.001
274.001
274.001
274.001
274.001
274.001
274.001
274.001
274.001
274.001
274.001
274.001
274.001
274.001
274.001
274.001
274.001
274.001
274.001
274.001
274.001
274.001
274.001
274.001
274.001
274.001
274.001
274.001
274.001
274.001
274.001
274.001
274.001
274.001
274.001
274.001
274.001
274.001
274.001
274.001
274.012
274.216
278.151
341.559
589.497
746.127
798.516
833.411
883.933
949.257
1012.4
1065.36
1107.96
1146.15
1211.92
1240.9
1236.6
1226.72
1214.34
1195.25
1171.32
1142.67
1110.06
1074.69
1040.46
1011.4
985.514
962.045
940.874
921.273
902.882
885.157
868.824
853.16
838.296
824.084
810.304
796.986
783.966
771.224
758.52
746.1
733.653
721.049
708.409
696.019
684.18
672.88
661.869
651.179
640.989
631.354
622.28
613.659
605.42
597.336
589.549
581.784
574.522
567.429
560.555
553.891
547.617
541.845
536.337
531.048
525.904
521.174
516.768
513.828
510.728
507.113
503.248
274
274
274
274
274
274
274
274
274
274
274
274
274
274
274
274
274
274
274
274
274
274
274
274
274
274
274
274
274
274
274
274
274
274
274
274
274
274
274
274
274
274
274
274
274
274
274
274
274
274
274.001
274.013
274.291
280.732
395.775
685.164
774.429
788.88
794.694
806.673
828.182
854.288
882.979
910.157
938.376
970.244
1007.87
1053.52
1101.22
1151.11
1200.48
1251.47
1293.2
1294.14
1285.61
1270.89
1241.24
1189.52
1136.48
1089.47
1045.96
1007.64
974.698
946.811
923.033
902.511
883.728
866.001
849.262
833.424
818.419
804.187
790.383
777.289
764.463
752.185
740.264
728.539
717.582
707.074
696.61
686.189
676.014
666.226
656.984
648.152
639.591
631.033
622.49
613.507
605.266
597.35
590.086
583.612
577.59
571.727
565.522
558.673
551.625
544.894
539.712
535.076
530.394
522.323
505.913
274
274
274
274
274
274
274
274
274
274
274
274
274
274
274
274
274
274
274
274
274
274
274
274
274
274
274
274
274
274
274
274
274
274
274
274
274
274
274
274
274
274
274
274
274
274
274
274
274
274
274.013
274.334
282.764
435.974
737.436
792.014
794.604
794.718
797.363
807.305
822.838
838.613
857.113
875.836
895.948
917.046
941.76
973.07
1013.51
1059.41
1108.18
1162.07
1217.62
1262.04
1297.16
1324.7
1348.43
1379.69
1367.88
1329.48
1285.15
1219.91
1158.76
1106.27
1061.86
1022.28
987.369
956.333
929.447
905.813
885
866.248
848.826
832.851
817.99
804.265
791.594
779.663
768.81
758.75
748.841
739.027
729.782
721
712.804
705.224
698.052
691.091
683.864
676.291
668.517
658.933
648.286
636.846
625.935
615.439
605.108
595.553
585.393
569.801
542.636
511.996
477.499
442.035
415.745
274
274
274
274
274
274
274
274
274
274
274
274
274
274
274
274
274
274
274
274
274
274
274
274
274
274
274
274
274
274
274
274
274
274
274
274
274
274
274
274
274
274
274
274
274
274
274
274
274
274.011
274.324
283.225
450.763
755.921
800.509
800.85
799.941
800.94
808.624
822.244
836.769
850.905
865.337
877.721
892.044
910.509
935.228
967.538
1009.61
1056.52
1104.52
1154.71
1202
1238.43
1269.58
1303.55
1332.78
1365.66
1389.61
1411.66
1428.29
1445.66
1441.17
1403.58
1343.45
1271.85
1207.83
1152.59
1106.93
1068.47
1035.06
1005.04
977.522
953.133
931.83
913.13
896.849
882.514
869.491
857.662
846.802
837.269
828.308
819.727
811.379
802.626
793.513
783.627
772.755
761.328
749.554
735.461
719.61
701.507
676.748
641.476
601.473
556.757
508.591
465.3
436.728
413.885
395.507
381.795
371.672
274
274
274
274
274
274
274
274
274
274
274
274
274
274
274
274
274
274
274
274
274
274
274
274
274
274
274
274
274
274
274
274
274
274
274
274
274
274
274
274
274
274
274
274
274
274
274
274
274.008
274.267
282.068
443.848
757.85
804.132
805.559
805.982
806.828
812.613
825.631
840.363
854.52
869.09
883.319
902.585
927.324
964.334
1015.34
1084.37
1173.94
1269.28
1366.04
1464.88
1544.1
1577.86
1586.32
1584.21
1567.2
1553.69
1523.03
1491.18
1468.94
1457.88
1445.02
1441.98
1458.25
1476.29
1466.03
1438.42
1400.05
1351.3
1296.77
1247.41
1202.71
1163.96
1131.19
1103.22
1078.84
1057.82
1039.17
1022.84
1008.21
995.466
984.192
973.39
962.632
950.803
936.746
918.387
891.527
851.541
802.312
745.376
683.274
616.742
560.185
517.859
482.912
453.734
429.726
410.782
395.475
382.457
371.234
362.46
355.922
274
274
274
274
274
274
274
274
274
274
274
274
274
274
274
274
274
274
274
274
274
274
274
274
274
274
274
274
274
274
274
274
274
274
274
274
274
274
274
274
274
274
274
274
274
274
274
274.005
274.188
279.921
417.863
748.714
807.173
809.546
810.383
813.888
817.692
830.122
844.878
859.554
873.863
890.952
914.279
949.265
1002.61
1077.3
1177.53
1307.43
1466.61
1605.46
1692.21
1727.39
1733.34
1724.73
1715.26
1700.05
1681.08
1656.07
1634.24
1607.24
1579.03
1547.35
1514.44
1482.82
1454.01
1431.26
1416.09
1400.09
1388.07
1391.31
1400.98
1400.24
1388.32
1371.79
1353.51
1335.08
1314.67
1293.72
1272.04
1249.2
1223.88
1196.5
1166.36
1131.22
1088.82
1036.93
973.684
898.935
820.318
755.514
696.459
641.167
592.739
550.791
516.464
484.874
457.961
434.591
414.751
398.669
385.319
374.139
364.499
356.75
350.482
274
274
274
274
274
274
274
274
274
274
274
274
274
274
274
274
274
274
274
274
274
274
274
274
274
274
274
274
274
274
274
274
274
274
274
274
274
274
274
274
274
274
274
274
274
274
274.003
274.113
277.701
378.264
725.999
810.509
814.279
814.655
818.304
824.089
837.215
851.782
866.172
880.183
897.761
924.806
968.808
1036.38
1137.05
1278.52
1464.95
1663.94
1774.41
1804.46
1804.5
1790.44
1776.47
1763.01
1752.67
1735.34
1723.29
1692.04
1665.75
1641.63
1626.55
1609.05
1595.2
1575.56
1548.25
1519.77
1488.49
1453.71
1418.23
1388.45
1362.75
1343.32
1324.05
1304.7
1285.12
1268.77
1254.19
1237.66
1219.37
1199.23
1176.05
1149.01
1119.52
1086.85
1049.52
1006.44
957.202
902.329
843.68
784.998
727.587
672.258
621.707
576.443
537.983
501.526
470.741
444.375
421.956
403.609
388.398
375.722
365.407
356.571
349.013
274
274
274
274
274
274
274
274
274
274
274
274
274
274
274
274
274
274
274
274
274
274
274
274
274
274
274
274
274
274
274
274
274
274
274
274
274
274
274
274
274
274
274
274
274
274.001
274.059
276.021
335.96
683.916
811.751
818.014
818.493
822.205
827.617
840.408
855.179
869.806
885.138
903.65
934.16
983.291
1061.16
1179.29
1351.63
1591.58
1798.46
1853.69
1853.33
1837.26
1819.18
1806.16
1802.33
1806.87
1816.63
1808.56
1777.67
1754.85
1727.73
1703.39
1678.97
1648.04
1633.96
1618.81
1605.21
1588.8
1570.81
1545.15
1516.6
1489.69
1460.15
1435.72
1409.9
1381.22
1351.75
1325.88
1302.7
1278.65
1254.17
1230.14
1206.76
1182.59
1157.49
1132.67