/*--------------------------------*- C++ -*----------------------------------*\
| =========                 |                                                 |
| \\      /  F ield         | OpenFOAM: The Open Source CFD Toolbox           |
|  \\    /   O peration     | Version:  2112                                  |
|   \\  /    A nd           | Website:  www.openfoam.com                      |
|    \\/     M anipulation  |                                                 |
\*---------------------------------------------------------------------------*/
FoamFile
{
    version     2.0;
    format      ascii;
    arch        "LSB;label=32;scalar=64";
    class       volScalarField;
    location    "0.00068";
    object      k;
}
// * * * * * * * * * * * * * * * * * * * * * * * * * * * * * * * * * * * * * //

dimensions      [0 2 -2 0 0 0 0];

internalField   nonuniform List<scalar> 
13875
(
813.521
3464.03
3542.28
3534.38
3539.89
3542.9
3542.83
3541.38
3542.01
3540.97
3540.99
3540.98
3538.33
3542
3544.2
3542.17
3542.54
3542
3538.31
3537.9
3541.55
3541.02
3539.15
3459.32
819.463
883.66
2939.52
3015.06
2999.64
2998.89
2999.32
2998.6
2996.51
2993.99
2995.3
2996.59
2995.68
2994.65
2998.01
2999.92
2998.56
2996.35
2997.91
2997.02
2998.87
3003.56
3007.75
3016.95
2935.22
890.784
997.001
2715.26
2780
2756.67
2755.77
2754.91
2753.75
2750.6
2742.54
2748.74
2747.72
2750.22
2748.94
2750.98
2749.1
2747.48
2749.02
2752.36
2754.03
2757.45
2761.55
2765.6
2785.45
2711.05
992.291
1096.42
2538.8
2583.36
2563.67
2563.61
2562.16
2560.92
2558.12
2549.66
2556.25
2555.89
2558.16
2557.25
2558.86
2555.55
2553.57
2555.77
2558.65
2560.99
2564.12
2566.75
2570.34
2589.23
2533.15
1089.3
1179.9
2385.79
2415.51
2395.9
2394.45
2392.83
2391.74
2388.97
2381.02
2387.29
2387.41
2389.63
2389.07
2390.29
2386.48
2384.22
2386.11
2388.56
2391.48
2394.23
2396.07
2401.86
2422.18
2381.46
1175.94
1251.44
2244.37
2273.69
2249.01
2247.38
2244.88
2243.03
2239.87
2232.46
2238.22
2238.89
2241.15
2240.98
2241.6
2237.47
2234.89
2236.81
2239.58
2243.17
2245.97
2247.8
2255.22
2283.51
2262.55
1257.2
1334.97
2131.63
2162.33
2125.88
2119.97
2115.19
2112.24
2108.29
2101.43
2106.74
2107.76
2110.18
2110.38
2110.37
2105.7
2102.86
2104.52
2107.89
2112.16
2116.22
2121.24
2136.79
2179.23
2127.94
1350.8
1432.19
2017.4
2081.09
2027.59
2014.63
2005
1999.27
1993.85
1987.21
1991.58
1992.91
1995.62
1996.12
1995.53
1990.73
1987.22
1988.42
1992.52
1999.05
2006.51
2017.22
2044.21
2114.25
2067.44
1505.58
1722.88
2050.91
2034.8
1957.65
1928.87
1912.31
1903.73
1896.34
1890.04
1893.5
1894.88
1898.22
1898.81
1897.76
1893.15
1888.33
1888.74
1894.07
1903.15
1915
1936.25
1991.2
2112.08
2198.17
1794.48
2580.53
2350.5
2050.53
1923.72
1873.5
1847.71
1833.76
1824.48
1819.12
1821.62
1822.55
1826.24
1826.79
1825.55
1821.52
1815.9
1814.96
1820.06
1831.22
1850.28
1884.82
1968.89
2185.58
2913.38
2961.16
4003.04
3126.45
2172.08
1971.55
1861.49
1815.57
1796.3
1784.53
1779.78
1781.18
1781.49
1785.1
1785.63
1784.65
1781.28
1775.68
1773.68
1778.34
1791.52
1820.88
1885.05
2049.24
2605.98
5519.13
4585.22
5173.94
6210.58
3513.86
2197.46
1946.83
1852.94
1808.88
1792.33
1785.51
1784.52
1783.69
1785.94
1786.07
1785.74
1783.36
1779
1778.11
1784.23
1805.8
1861.75
1935.59
2433.85
5707.98
7942.65
4718.46
5043.62
6376.34
9415.73
5360.94
2383.63
2006.43
1942.47
1911.05
1904.64
1901.08
1898.75
1898.8
1898.4
1898.39
1896.97
1894.68
1895.57
1899.75
1935.05
2056.04
2621.54
5468.05
9329.74
6975.05
4673.9
4755.1
5542.33
7917.34
9287.96
6423.04
3354.58
3006.86
2745.65
2632.45
2609.07
2592.43
2597.93
2648.42
2616.62
2567.99
2557.35
2568.49
2642.46
2827.75
3918.07
6988.55
6944.38
7747.27
6090.72
4572.91
4501.17
5003.91
6610.65
7448.19
7253.31
6045.95
6060.37
6607.89
6388.39
6621.32
6838.16
7150.38
7594.13
7353.86
6862.96
6484.42
6177.7
6356.29
6011.94
6412.67
7185.23
6433.98
6675.96
5465.98
4513.55
4268.42
4711.17
6246.2
6842.72
7405.71
8345.12
8781.12
7384.12
6987.38
7387.89
8014.42
8717.34
9171.62
8948.78
8351.06
7679.84
7172.93
7271.12
9462.37
9465.53
7609.74
6312.87
6190.04
4937.11
4368.55
4043.39
4735.06
6156.46
6806.18
7660.02
7777.23
7677.14
6071.81
5725.93
6216.27
6992.84
8154.51
9700.67
9123.26
7580.32
6632.44
5991.48
6044.63
8631.02
8948.44
8032.17
6731.36
5915.02
4567.82
4063.06
3631.73
5274
6214.5
6053.25
6449.48
6293.27
6420.34
5564.74
5211.25
5751.07
6756.89
8403.26
10219.3
9314.92
7366.46
6160.25
5506.54
5799.81
7376.24
7174.88
6776.92
6096.17
5619.41
4693.84
3635.95
3229.05
5465.81
5789.34
5416.94
5374.92
5239.05
5473.69
5295.03
5092.95
5502.84
6599.29
8548.34
10568.8
9724.1
7409.37
5999.41
5501.46
5823.36
6235.43
5747.26
5493.39
5152.55
4892.29
4526.06
3289.78
3201.4
4970.42
5053.02
4833.39
4710.3
4591.26
4798.24
4918.41
4941.69
5362.48
6562.89
8806.36
10986
9832.61
7326.9
5890.39
5443.2
5465.05
5297.87
4824.98
4617.66
4407.74
4199.07
4012.55
3258.9
4013.44
4639.65
4592.88
4363.87
4211.57
4099.9
4286.8
4505.9
4688.27
5226.12
6631.11
9179.8
11410.3
9942.05
7274.39
5729.77
5159.66
4952.85
4622.38
4200.51
4033.74
3919.63
3813.07
3887.79
3667.57
5134.93
5763.07
4280.76
4003.71
3822.01
3712.18
3882.12
4126.35
4416.23
5104.81
6756.23
9550.1
11783.2
10150.5
7318.25
5568.6
4817.74
4468.08
4115.14
3756.77
3612.33
3566.38
3558.01
4914.6
4570
5804.81
6921.5
4022.14
3666.87
3485.21
3388.58
3552.42
3809.62
4193.17
5049.11
6949.94
9898.14
12093.9
10457.4
7497.63
5491.45
4535.62
4073.27
3711.76
3408.91
3274.23
3268.01
3386.97
6088.93
5347.78
6254.21
7900.15
3772.33
3403.34
3194.42
3129.56
3291.07
3573.45
4069.77
5127.23
7282.29
10315.5
12355.3
10726.5
7730.17
5506.61
4354.94
3776.74
3394.77
3132.76
3030.92
3080.2
3252.39
7266.77
5849.77
6700.79
8940.53
3662.42
3216.38
3006.17
2973.57
3133.83
3452.75
4050.82
5293.3
7659.7
10694.7
12550.8
10997.4
8031.91
5629.15
4283.53
3598.6
3200.6
2960.7
2876.19
2963.79
3237.83
8547.49
6478.91
7507.11
9905.52
3700.67
3121.1
2941.41
2933.32
3105.43
3474.75
4177.94
5578.03
8052.11
11022.6
12703.7
11284.7
8418.4
5903.34
4400.92
3595.67
3154.1
2913.58
2833.19
2916.7
3319.78
9342.09
7496.93
8664.27
10330.6
3828.31
3169.17
3025.93
3045.13
3240.16
3673.51
4498.17
6043.91
8549.33
11345.3
12831.1
11539.1
8800.23
6263.11
4650.17
3746.12
3257.34
3008.78
2925.71
2998.31
3526.08
10016.5
8617.03
9864
10852.1
4148.05
3412.58
3277.8
3322.04
3542.75
4026.2
4939.95
6569.59
9028.07
11632.5
12973.4
11804.3
9276.77
6788.82
5089.12
4093.83
3551.13
3279.74
3179.39
3250.01
3923.56
10775.5
9860.47
11187.7
11728.4
4740.36
3921.13
3732.45
3790.08
4039.66
4556.98
5529.82
7189.28
9540.34
11931.3
13133.6
12096.2
9810.9
7440.77
5702.94
4640.5
4050.25
3743.64
3629.1
3762.94
4589.22
11643.8
11271.8
12597
12831.6
5715.9
4809.36
4490.45
4496.63
4753.56
5316.36
6328.68
7978.6
10172.2
12297.9
13338.5
12405.5
10334.3
8127.88
6420.91
5342.53
4716.98
4405.34
4352.45
4673.13
5674.92
13111.7
12770.5
13867.9
14486.3
7358.76
6241.63
5665.95
5492.77
5670.21
6224.46
7232.01
8809.79
10808.3
12693.9
13614.3
12794.2
10971.1
8970.23
7336.3
6260.86
5634.1
5381.25
5489.41
6113.75
7376.08
14828.3
14307.3
15168.8
16766.6
9655.22
8494.28
7481.77
6924.2
6864.88
7303.91
8260.08
9734.52
11522
13167.5
13972.2
13260.1
11680.7
9900.13
8375.58
7348.85
6822.54
6792.34
7288.74
8351.23
9702.6
17160.1
15643.4
16503.2
19245.8
12348
11539.4
10313.7
8911.33
8470.75
8676.98
9459.26
10782.4
12352.9
13760.1
14448.1
13823
12452.9
10884
9520.22
8671.48
8380.29
8752.19
10152.1
11417.7
12465.9
20054.4
16797.4
17529.9
22345.2
15567.1
14889.3
14297.3
11992.9
10587.6
10368.9
10838.1
11930.6
13268.5
14467.2
15058.9
14531.8
13371.4
12035.7
10902.5
10345.4
10466.7
11758.9
14166.9
14831.2
15770.8
23214.6
17953.3
18432.5
25765
19597.3
18494.7
18881.6
16657.3
13468.6
12480.9
12525.5
13235.8
14308.4
15306.4
15812.4
15366.8
14404.3
13335.8
12590.3
12462.2
13362.9
16519
18829.3
18500.4
19900.8
26852.4
18778.4
19470.3
29594.8
24316.9
22711
23049.6
22376.5
17861
15095.4
14561
14813
15553.1
16330
16738.3
16371.6
15607
14865.9
14593.9
15110
17978.8
22428.1
23033.3
22906.3
24936.1
30456.8
19650.4
20050.6
33032
29460.5
27513.2
27282.2
27567.4
24387.7
18827.4
16991
16745.6
17071.9
17575.2
17881.3
17635.8
17159.7
16807.1
16997.2
18943.6
24603
27680.3
27442.9
27867
30163.1
33960.5
20125.9
20089.4
35734.2
34327.4
32427.4
31734.8
31937.1
31013.8
24612
19992.6
18991
18962.7
19223.1
19391.3
19292
19077.9
19060.9
20056.4
24983.8
31294.4
32053.8
32009
32826.6
35124.2
36706.5
20237.8
20257.3
38361.2
38439.8
36972.9
36013.5
35873.9
35532.1
31711.2
24176.5
21519.9
21109.6
21210.6
21323
21266.5
21208.3
21609.4
24503.5
32069.5
35642.2
35981.2
36302.8
37379.2
39147.8
38719.6
20322.4
20249.2
40544.2
41761.8
40772.9
39868.4
39506.3
39347.5
38031.5
30424.6
24717.3
23584.2
23515.7
23563.8
23567.4
23671.4
24749.4
30234.1
37977.8
39394.4
39618.3
40151.3
41175
42446.8
41242.7
20349.2
20173.3
42562.2
44565.5
43932.8
43114.2
42781
42690.9
41908.9
37062.2
29058.9
26448.5
26133.2
26119.5
26193.3
26530.4
28996.5
36962.7
41957.5
42776.1
42950
43428.7
44383.3
45279.8
43395.5
20287.3
20042
44669
47020.6
46572.9
45841
45621.4
45673.3
45368.7
43219.7
34334.5
29837.3
29109.1
29027.9
29158.9
29960
34483.3
43379.4
45485.1
45744.8
45798.6
46138.7
47001.8
47531.9
44849.3
20073.1
19968.1
45721.7
48874.8
48654.3
48147
48220.5
48497.2
48751.9
48630.3
41463.2
34213.7
32577.9
32363.5
32603.2
34153.1
41347.3
48834.7
49005.8
48667.5
48436.9
48445.6
49103.9
49413.3
46093.8
20029.8
19976.5
44780.7
49672.8
50127
50066.8
50575.9
51221.2
51954.9
52692.7
50194.9
40666.8
37112.5
36558.5
37127.1
40609.3
50144.7
52913.8
52232.3
51414.9
50792.1
50366.2
50590.6
50220.1
45382.8
20090.3
20351.8
42741.9
49160.4
50828.6
51275.9
52256
53443.7
54678.2
55991.1
56980.9
50072.3
44263.4
43129.5
44324.8
50188.4
56911.5
56082.8
54788.7
53557.9
52421.1
51565.5
51186
49458
42870.2
20228.6
20812.7
39699.2
47518
50475
51890.7
53269.1
54785.7
56409.5
58121.7
59497.6
56992.4
52092.3
51009
52109.6
57081.4
59469.4
58172.2
56444.3
54853.6
53386.2
52096.1
50668.9
47776.2
39611.4
20761
21339
36408.4
45237.7
49208
51413.8
53233.9
55098.4
57022.5
58920.4
60396.8
58985.5
56809.2
55647.8
56778.4
59000.5
60470.2
59049.4
57084.1
55176.6
53324.7
51548.4
49297.5
45277.1
36234.2
21329.9
21593.3
33596.6
42268.7
47143.6
49983.7
52464.8
54720.3
56877.8
58587.9
59510.4
57575.4
56047.4
55524.9
56032.2
57567.3
59515.7
58644.4
56873.3
54728.4
52470.9
49981.4
47148.3
42259.2
33369.4
21606.8
21867.7
31704.3
39300.4
44953.3
48318.2
51338.8
53772.8
55776.7
57043.1
57194.3
54886.2
53232.1
52764.5
53202.4
54852.2
57149.1
57081.5
55789.6
53781.7
51339.1
48305.5
44940.3
39289.5
31657.2
21921.6
21335
30056.2
36431.6
42518.2
46120.4
49140.7
51598.4
53451
54490.1
53671.2
51361.1
49842.2
49443.2
49808
51314.9
53610.6
54494.3
53482.7
51608.8
49147.6
46139.8
42541.1
36442.8
30082.6
21439.2
796.355
883.718
895.238
895.175
894.395
893.23
892.332
891.63
891.042
890.512
890.011
889.524
889.047
888.578
888.115
887.661
887.213
886.773
886.339
885.913
885.493
885.08
884.672
884.271
883.874
883.483
883.087
882.571
877.79
795.906
709.2
845.578
858.077
857.238
856.182
854.935
854.173
853.713
853.416
853.195
853.006
852.831
852.664
852.502
852.345
852.193
852.045
851.903
851.764
851.63
851.5
851.374
851.251
851.131
851.013
850.897
850.77
850.419
843.752
738.271
707.207
841.766
851.753
850.534
849.408
848.126
847.454
847.129
846.979
846.907
846.864
846.83
846.799
846.77
846.742
846.715
846.69
846.665
846.642
846.62
846.598
846.578
846.558
846.538
846.517
846.496
846.465
846.17
839.247
731.019
711.563
841.365
851.032
849.713
848.579
847.223
846.56
846.263
846.145
846.103
846.09
846.084
846.08
846.076
846.073
846.07
846.067
846.064
846.061
846.058
846.056
846.054
846.051
846.048
846.044
846.038
846.025
845.724
838.684
728.938
712.027
841.292
851.053
849.624
848.525
847.12
846.463
846.17
846.057
846.021
846.012
846.011
846.01
846.01
846.009
846.009
846.009
846.008
846.008
846.008
846.008
846.007
846.007
846.006
846.004
846.001
845.991
845.672
838.5
727.376
711.874
841.544
851.128
849.549
848.493
847.088
846.442
846.154
846.044
846.013
846.006
846.004
846.004
846.004
846.004
846.004
846.004
846.004
846.004
846.004
846.004
846.004
846.004
846.004
846.002
846
845.988
845.656
838.337
725.901
712.071
841.778
851.114
849.408
848.437
847.037
846.419
846.137
846.038
846.011
846.005
846.004
846.004
846.004
846.004
846.004
846.004
846.004
846.004
846.004
846.004
846.004
846.004
846.004
846.003
846.001
845.988
845.643
838.177
724.49
713.068
841.902
851.074
849.171
848.337
846.96
846.375
846.121
846.034
846.01
846.005
846.004
846.004
846.004
846.004
846.004
846.004
846.004
846.004
846.004
846.004
846.004
846.004
846.004
846.003
846.002
845.989
845.63
838.027
723.171
714.087
841.844
850.962
848.841
848.156
846.859
846.341
846.111
846.031
846.009
846.005
846.004
846.004
846.004
846.004
846.004
846.004
846.004
846.004
846.004
846.004
846.004
846.004
846.004
846.003
846.003
845.991
845.621
837.89
721.962
714.679
841.312
850.634
848.551
847.973
846.789
846.315
846.101
846.028
846.009
846.005
846.004
846.004
846.004
846.004
846.004
846.004
846.004
846.004
846.004
846.004
846.004
846.004
846.004
846.004
846.003
845.991
845.615
837.763
720.86
714.981
840.801
850.196
848.335
847.815
846.73
846.291
846.093
846.026
846.008
846.004
846.004
846.004
846.004
846.004
846.004
846.004
846.004
846.004
846.004
846.004
846.004
846.004
846.004
846.004
846.003
845.991
845.606
837.646
719.855
715.066
840.412
849.779
848.155
847.666
846.673
846.268
846.085
846.023
846.008
846.004
846.004
846.004
846.004
846.004
846.004
846.004
846.004
846.004
846.004
846.004
846.004
846.004
846.004
846.004
846.003
845.99
845.599
837.537
718.933
714.742
840.102
849.389
847.98
847.521
846.617
846.245
846.077
846.021
846.007
846.004
846.004
846.004
846.004
846.004
846.004
846.004
846.004
846.004
846.004
846.004
846.004
846.004
846.004
846.004
846.003
845.99
845.591
837.435
718.088
714.45
839.817
849.021
847.802
847.381
846.562
846.224
846.07
846.019
846.007
846.004
846.004
846.004
846.004
846.004
846.004
846.004
846.004
846.004
846.004
846.004
846.004
846.004
846.004
846.004
846.003
845.99
845.584
837.342
717.314
714.3
839.514
848.67
847.629
847.249
846.509
846.203
846.063
846.018
846.006
846.004
846.004
846.004
846.004
846.004
846.004
846.004
846.004
846.004
846.004
846.004
846.004
846.004
846.004
846.004
846.003
845.989
845.578
837.258
716.612
714.073
839.226
848.337
847.462
847.123
846.458
846.183
846.057
846.016
846.006
846.004
846.004
846.004
846.004
846.004
846.004
846.004
846.004
846.004
846.004
846.004
846.004
846.004
846.004
846.004
846.003
845.989
845.572
837.181
715.979
713.88
838.952
848.018
847.299
847
846.408
846.163
846.051
846.014
846.006
846.004
846.004
846.004
846.004
846.004
846.004
846.004
846.004
846.004
846.004
846.004
846.004
846.004
846.004
846.004
846.003
845.989
845.567
837.113
715.411
713.715
838.657
847.702
847.133
846.879
846.359
846.144
846.045
846.013
846.005
846.004
846.004
846.004
846.004
846.004
846.004
846.004
846.004
846.004
846.004
846.004
846.004
846.004
846.004
846.004
846.003
845.989
845.562
837.053
714.909
713.518
838.35
847.379
846.953
846.754
846.308
846.125
846.039
846.012
846.005
846.004
846.004
846.004
846.004
846.004
846.004
846.004
846.004
846.004
846.004
846.004
846.004
846.004
846.004
846.004
846.003
845.989
845.559
837
714.468
713.399
838.045
847.055
846.758
846.621
846.253
846.104
846.033
846.01
846.005
846.004
846.004
846.004
846.004
846.004
846.004
846.004
846.004
846.004
846.004
846.004
846.004
846.004
846.004
846.004
846.003
845.989
845.555
836.956
714.085
713.364
837.792
846.77
846.561
846.483
846.192
846.081
846.026
846.009
846.005
846.004
846.004
846.004
846.004
846.004
846.004
846.004
846.004
846.004
846.004
846.004
846.004
846.004
846.004
846.004
846.003
845.988
845.552
836.918
713.761
713.406
837.61
846.558
846.381
846.353
846.13
846.055
846.018
846.007
846.004
846.004
846.004
846.004
846.004
846.004
846.004
846.004
846.004
846.004
846.004
846.004
846.004
846.004
846.004
846.004
846.003
845.988
845.55
836.887
713.489
714.559
837.669
846.391
846.224
846.244
846.072
846.031
846.01
846.005
846.004
846.004
846.004
846.004
846.004
846.004
846.004
846.004
846.004
846.004
846.004
846.004
846.004
846.004
846.004
846.004
846.004
845.988
845.549
836.863
713.269
745.223
847.099
846.529
846.098
846.153
846.022
846.009
846.003
846.003
846.004
846.004
846.004
846.004
846.004
846.004
846.004
846.004
846.004
846.004
846.004
846.004
846.004
846.004
846.004
846.004
846.004
845.988
845.547
836.846
713.099
757.222
1048.98
854.623
846.191
846.085
845.983
845.993
845.998
846.002
846.003
846.004
846.004
846.004
846.004
846.004
846.004
846.004
846.004
846.004
846.004
846.004
846.004
846.004
846.004
846.004
846.004
845.988
845.547
836.835
712.974
795.906
877.791
882.572
883.089
883.486
883.877
884.275
884.677
885.084
885.498
885.919
886.346
886.78
887.221
887.67
888.125
888.588
889.058
889.536
890.024
890.526
891.056
891.645
892.348
893.247
894.412
895.192
895.257
883.734
796.367
738.27
843.752
850.419
850.77
850.897
851.013
851.131
851.251
851.374
851.5
851.63
851.764
851.903
852.045
852.193
852.345
852.502
852.664
852.831
853.006
853.195
853.416
853.713
854.173
854.934
856.182
857.236
858.077
845.578
709.214
731.017
839.247
846.17
846.465
846.496
846.517
846.538
846.558
846.578
846.598
846.62
846.642
846.666
846.69
846.715
846.742
846.77
846.799
846.83
846.864
846.907
846.98
847.129
847.455
848.126
849.407
850.532
851.753
841.768
707.177
728.937
838.684
845.724
846.025
846.038
846.044
846.048
846.051
846.054
846.056
846.058
846.061
846.064
846.067
846.07
846.073
846.076
846.08
846.084
846.09
846.103
846.145
846.263
846.56
847.222
848.578
849.712
851.033
841.371
711.615
727.377
838.501
845.672
845.991
846.001
846.004
846.006
846.007
846.007
846.008
846.008
846.008
846.008
846.009
846.009
846.009
846.01
846.01
846.011
846.012
846.021
846.057
846.17
846.463
847.12
848.525
849.623
851.054
841.283
712.049
725.9
838.337
845.656
845.988
846
846.002
846.004
846.004
846.004
846.004
846.004
846.004
846.004
846.004
846.004
846.004
846.004
846.004
846.004
846.006
846.013
846.044
846.154
846.442
847.087
848.493
849.549
851.128
841.549
711.81
724.49
838.178
845.643
845.988
846.001
846.003
846.004
846.004
846.004
846.004
846.004
846.004
846.004
846.004
846.004
846.004
846.004
846.004
846.004
846.005
846.011
846.038
846.137
846.419
847.037
848.437
849.409
851.115
841.778
712.159
723.172
838.027
845.63
845.989
846.002
846.003
846.004
846.004
846.004
846.004
846.004
846.004
846.004
846.004
846.004
846.004
846.004
846.004
846.004
846.005
846.01
846.034
846.121
846.375
846.96
848.338
849.171
851.073
841.897
713.027
721.962
837.89
845.621
845.991
846.003
846.003
846.004
846.004
846.004
846.004
846.004
846.004
846.004
846.004
846.004
846.004
846.004
846.004
846.004
846.005
846.009
846.031
846.111
846.341
846.859
848.157
848.841
850.961
841.847
714.088
720.861
837.764
845.615
845.991
846.003
846.004
846.004
846.004
846.004
846.004
846.004
846.004
846.004
846.004
846.004
846.004
846.004
846.004
846.004
846.005
846.009
846.028
846.101
846.315
846.789
847.973
848.551
850.634
841.305
714.698
719.854
837.645
845.606
845.991
846.003
846.004
846.004
846.004
846.004
846.004
846.004
846.004
846.004
846.004
846.004
846.004
846.004
846.004
846.004
846.004
846.008
846.026
846.093
846.291
846.73
847.815
848.334
850.196
840.807
714.936
718.933
837.537
845.599
845.99
846.003
846.004
846.004
846.004
846.004
846.004
846.004
846.004
846.004
846.004
846.004
846.004
846.004
846.004
846.004
846.004
846.008
846.023
846.085
846.268
846.673
847.666
848.156
849.779
840.413
715.102
718.089
837.436
845.591
845.99
846.003
846.004
846.004
846.004
846.004
846.004
846.004
846.004
846.004
846.004
846.004
846.004
846.004
846.004
846.004
846.004
846.007
846.021
846.077
846.245
846.617
847.521
847.98
849.389
840.097
714.737
717.315
837.342
845.584
845.99
846.003
846.004
846.004
846.004
846.004
846.004
846.004
846.004
846.004
846.004
846.004
846.004
846.004
846.004
846.004
846.004
846.007
846.019
846.07
846.224
846.562
847.381
847.802
849.021
839.818
714.445
716.612
837.258
845.578
845.989
846.003
846.004
846.004
846.004
846.004
846.004
846.004
846.004
846.004
846.004
846.004
846.004
846.004
846.004
846.004
846.004
846.006
846.018
846.063
846.203
846.509
847.249
847.629
848.67
839.517
714.296
715.98
837.181
845.572
845.989
846.003
846.004
846.004
846.004
846.004
846.004
846.004
846.004
846.004
846.004
846.004
846.004
846.004
846.004
846.004
846.004
846.006
846.016
846.057
846.183
846.458
847.123
847.463
848.337
839.223
714.084
715.412
837.113
845.567
845.989
846.003
846.004
846.004
846.004
846.004
846.004
846.004
846.004
846.004
846.004
846.004
846.004
846.004
846.004
846.004
846.004
846.006
846.014
846.051
846.163
846.408
847
847.299
848.018
838.953
713.871
714.908
837.053
845.562
845.989
846.003
846.004
846.004
846.004
846.004
846.004
846.004
846.004
846.004
846.004
846.004
846.004
846.004
846.004
846.004
846.004
846.005
846.013
846.045
846.144
846.359
846.879
847.132
847.703
838.661
713.713
714.468
837.001
845.559
845.989
846.003
846.004
846.004
846.004
846.004
846.004
846.004
846.004
846.004
846.004
846.004
846.004
846.004
846.004
846.004
846.004
846.005
846.012
846.039
846.125
846.308
846.754
846.953
847.379
838.344
713.532
714.086
836.955
845.555
845.989
846.003
846.004
846.004
846.004
846.004
846.004
846.004
846.004
846.004
846.004
846.004
846.004
846.004
846.004
846.004
846.004
846.005
846.01
846.033
846.104
846.253
846.621
846.758
847.054
838.045
713.386
713.76
836.918
845.552
845.988
846.003
846.004
846.004
846.004
846.004
846.004
846.004
846.004
846.004
846.004
846.004
846.004
846.004
846.004
846.004
846.004
846.005
846.009
846.026
846.081
846.192
846.483
846.561
846.77
837.795
713.362
713.49
836.888
845.55
845.988
846.003
846.004
846.004
846.004
846.004
846.004
846.004
846.004
846.004
846.004
846.004
846.004
846.004
846.004
846.004
846.004
846.004
846.007
846.018
846.055
846.13
846.353
846.38
846.556
837.606
713.423
713.27
836.863
845.549
845.988
846.004
846.004
846.004
846.004
846.004
846.004
846.004
846.004
846.004
846.004
846.004
846.004
846.004
846.004
846.004
846.004
846.004
846.005
846.01
846.031
846.072
846.243
846.224
846.391
837.674
714.558
713.098
836.846
845.547
845.988
846.004
846.004
846.004
846.004
846.004
846.004
846.004
846.004
846.004
846.004
846.004
846.004
846.004
846.004
846.004
846.004
846.004
846.003
846.003
846.009
846.022
846.153
846.098
846.533
847.219
745.402
712.974
836.835
845.547
845.988
846.004
846.004
846.004
846.004
846.004
846.004
846.004
846.004
846.004
846.004
846.004
846.004
846.004
846.004
846.004
846.004
846.003
846.002
845.998
845.993
845.983
846.085
846.194
854.729
1050.87
757.544
669.105
669.501
669.904
670.307
670.708
671.109
671.509
671.908
672.306
672.703
673.1
673.495
673.889
674.283
674.676
675.067
675.458
675.848
676.237
676.625
677.013
677.399
677.785
678.169
678.553
678.936
679.318
679.699
680.08
680.459
680.838
681.216
681.593
681.969
682.344
682.719
683.092
683.465
683.837
684.208
684.578
684.948
685.316
685.684
686.051
686.417
686.783
687.147
687.511
687.874
688.236
688.597
688.958
689.318
689.676
690.035
690.392
690.749
691.104
691.46
691.814
692.167
692.52
692.872
693.223
693.574
693.923
694.272
694.62
694.968
695.314
695.66
696.005
696.35
696.693
697.036
697.378
697.72
698.061
698.401
698.74
699.078
699.416
699.753
700.089
700.425
700.76
701.094
701.428
701.76
702.093
702.424
702.755
703.084
703.414
703.742
704.07
704.397
704.724
705.05
705.375
705.699
706.023
706.346
706.668
706.99
707.311
707.631
707.951
708.27
708.588
708.906
709.223
709.539
709.855
710.17
710.485
710.798
711.112
711.424
711.736
712.047
712.358
712.664
712.94
829.319
829.424
829.509
829.591
829.672
829.753
829.833
829.913
829.993
830.072
830.15
830.228
830.306
830.383
830.46
830.537
830.613
830.688
830.763
830.838
830.912
830.986
831.059
831.133
831.205
831.277
831.349
831.421
831.492
831.562
831.633
831.702
831.772
831.841
831.91
831.978
832.046
832.113
832.181
832.247
832.314
832.38
832.446
832.511
832.576
832.641
832.705
832.769
832.833
832.896
832.959
833.021
833.084
833.145
833.207
833.268
833.329
833.39
833.45
833.51
833.569
833.629
833.687
833.746
833.804
833.862
833.92
833.977
834.034
834.091
834.148
834.204
834.26
834.315
834.37
834.425
834.48
834.534
834.588
834.642
834.696
834.749
834.802
834.855
834.907
834.959
835.011
835.062
835.114
835.165
835.216
835.266
835.316
835.366
835.416
835.465
835.514
835.563
835.612
835.66
835.709
835.756
835.804
835.852
835.899
835.946
835.992
836.039
836.085
836.131
836.177
836.222
836.267
836.312
836.357
836.402
836.446
836.49
836.534
836.578
836.621
836.664
836.707
836.751
836.8
844.776
844.79
844.8
844.81
844.82
844.83
844.84
844.849
844.859
844.868
844.878
844.887
844.896
844.905
844.914
844.923
844.932
844.941
844.949
844.958
844.966
844.975
844.983
844.991
845
845.008
845.016
845.024
845.032
845.04
845.047
845.055
845.063
845.07
845.078
845.085
845.092
845.1
845.107
845.114
845.121
845.128
845.135
845.142
845.149
845.156
845.163
845.169
845.176
845.182
845.189
845.195
845.202
845.208
845.214
845.221
845.227
845.233
845.239
845.245
845.251
845.257
845.263
845.268
845.274
845.28
845.285
845.291
845.297
845.302
845.308
845.313
845.318
845.324
845.329
845.334
845.339
845.344
845.349
845.355
845.36
845.364
845.369
845.374
845.379
845.384
845.389
845.393
845.398
845.403
845.407
845.412
845.416
845.421
845.425
845.43
845.434
845.438
845.443
845.447
845.451
845.455
845.459
845.463
845.468
845.472
845.476
845.48
845.484
845.487
845.491
845.495
845.499
845.503
845.506
845.51
845.514
845.518
845.521
845.525
845.529
845.532
845.536
845.539
845.544
845.94
845.941
845.942
845.943
845.943
845.944
845.945
845.945
845.946
845.947
845.947
845.948
845.949
845.949
845.95
845.951
845.951
845.952
845.953
845.953
845.954
845.954
845.955
845.955
845.956
845.957
845.957
845.958
845.958
845.959
845.959
845.96
845.96
845.961
845.961
845.962
845.962
845.963
845.963
845.964
845.964
845.965
845.965
845.965
845.966
845.966
845.967
845.967
845.968
845.968
845.968
845.969
845.969
845.97
845.97
845.97
845.971
845.971
845.971
845.972
845.972
845.973
845.973
845.973
845.974
845.974
845.974
845.975
845.975
845.975
845.975
845.976
845.976
845.976
845.977
845.977
845.977
845.978
845.978
845.978
845.978
845.979
845.979
845.979
845.98
845.98
845.98
845.98
845.981
845.981
845.981
845.981
845.982
845.982
845.982
845.982
845.983
845.983
845.983
845.983
845.983
845.984
845.984
845.984
845.984
845.984
845.985
845.985
845.985
845.985
845.985
845.986
845.986
845.986
845.986
845.986
845.987
845.987
845.987
845.987
845.987
845.988
845.988
845.988
845.988
846.001
846.002
846.002
846.002
846.002
846.002
846.002
846.002
846.002
846.002
846.002
846.002
846.002
846.002
846.002
846.002
846.002
846.002
846.002
846.002
846.002
846.002
846.002
846.002
846.002
846.002
846.002
846.002
846.002
846.002
846.002
846.002
846.002
846.002
846.003
846.003
846.003
846.003
846.003
846.003
846.003
846.003
846.003
846.003
846.003
846.003
846.003
846.003
846.003
846.003
846.003
846.003
846.003
846.003
846.003
846.003
846.003
846.003
846.003
846.003
846.003
846.003
846.003
846.003
846.003
846.003
846.003
846.003
846.003
846.003
846.003
846.003
846.003
846.003
846.003
846.003
846.003
846.003
846.003
846.003
846.003
846.003
846.003
846.003
846.003
846.003
846.003
846.003
846.003
846.003
846.003
846.003
846.003
846.003
846.003
846.003
846.003
846.003
846.003
846.003
846.003
846.003
846.003
846.003
846.003
846.003
846.003
846.003
846.003
846.003
846.003
846.003
846.003
846.003
846.003
846.003
846.003
846.003
846.003
846.003
846.004
846.004
846.004
846.004
846.004
846.004
846.004
846.004
846.004
846.004
846.004
846.004
846.004
846.004
846.004
846.004
846.004
846.004
846.004
846.004
846.004
846.004
846.004
846.004
846.004
846.004
846.004
846.004
846.004
846.004
846.004
846.004
846.004
846.004
846.004
846.004
846.004
846.004
846.004
846.004
846.004
846.004
846.004
846.004
846.004
846.004
846.004
846.004
846.004
846.004
846.004
846.004
846.004
846.004
846.004
846.004
846.004
846.004
846.004
846.004
846.004
846.004
846.004
846.004
846.004
846.004
846.004
846.004
846.004
846.004
846.004
846.004
846.004
846.004
846.004
846.004
846.004
846.004
846.004
846.004
846.004
846.004
846.004
846.004
846.004
846.004
846.004
846.004
846.004
846.004
846.004
846.004
846.004
846.004
846.004
846.004
846.004
846.004
846.004
846.004
846.004
846.004
846.004
846.004
846.004
846.004
846.004
846.004
846.004
846.004
846.004
846.004
846.004
846.004
846.004
846.004
846.004
846.004
846.004
846.004
846.004
846.004
846.004
846.004
846.004
846.004
846.004
846.004
846.004
846.004
846.004
846.004
846.004
846.004
846.004
846.004
846.004
846.004
846.004
846.004
846.004
846.004
846.004
846.004
846.004
846.004
846.004
846.004
846.004
846.004
846.004
846.004
846.004
846.004
846.004
846.004
846.004
846.004
846.004
846.004
846.004
846.004
846.004
846.004
846.004
846.004
846.004
846.004
846.004
846.004
846.004
846.004
846.004
846.004
846.004
846.004
846.004
846.004
846.004
846.004
846.004
846.004
846.004
846.004
846.004
846.004
846.004
846.004
846.004
846.004
846.004
846.004
846.004
846.004
846.004
846.004
846.004
846.004
846.004
846.004
846.004
846.004
846.004
846.004
846.004
846.004
846.004
846.004
846.004
846.004
846.004
846.004
846.004
846.004
846.004
846.004
846.004
846.004
846.004
846.004
846.004
846.004
846.004
846.004
846.004
846.004
846.004
846.004
846.004
846.004
846.004
846.004
846.004
846.004
846.004
846.004
846.004
846.004
846.004
846.004
846.004
846.004
846.004
846.004
846.004
846.004
846.004
846.004
846.004
846.004
846.004
846.004
846.004
846.004
846.004
846.004
846.004
846.004
846.004
846.004
846.004
846.004
846.004
846.004
846.004
846.004
846.004
846.004
846.004
846.004
846.004
846.004
846.004
846.004
846.004
846.004
846.004
846.004
846.004
846.004
846.004
846.004
846.004
846.004
846.004
846.004
846.004
846.004
846.004
846.004
846.004
846.004
846.004
846.004
846.004
846.004
846.004
846.004
846.004
846.004
846.004
846.004
846.004
846.004
846.004
846.004
846.004
846.004
846.004
846.004
846.004
846.004
846.004