/*--------------------------------*- C++ -*----------------------------------*\
| =========                 |                                                 |
| \\      /  F ield         | OpenFOAM: The Open Source CFD Toolbox           |
|  \\    /   O peration     | Version:  2112                                  |
|   \\  /    A nd           | Website:  www.openfoam.com                      |
|    \\/     M anipulation  |                                                 |
\*---------------------------------------------------------------------------*/
FoamFile
{
    version     2.0;
    format      ascii;
    arch        "LSB;label=32;scalar=64";
    class       volScalarField;
    location    "0.00366";
    object      T;
}
// * * * * * * * * * * * * * * * * * * * * * * * * * * * * * * * * * * * * * //

dimensions      [0 0 0 1 0 0 0];

internalField   nonuniform List<scalar> 
13875
(
1412
1535.53
1482.6
1487.32
1481.03
1483.51
1483.48
1482.98
1484.16
1483.9
1483.89
1484.34
1483.71
1484.09
1483.96
1483.74
1482.97
1483.34
1482.74
1483.43
1481.03
1487.63
1480.72
1533.35
1398.85
1307.05
1356.18
1319.15
1322.22
1316.58
1317.14
1317.05
1317.82
1322.59
1323
1323.02
1322.71
1318.32
1317.95
1318.45
1322.49
1322.28
1322.11
1317.7
1317.04
1315.87
1321.9
1319.64
1356.68
1303.53
1307.25
1340.03
1314.46
1311.39
1303.8
1304.17
1303.58
1303.65
1304.84
1304.57
1304.54
1304.82
1304.15
1304.34
1304.13
1305.47
1302.9
1304.7
1303.88
1304.55
1303.65
1310.79
1311.49
1336.22
1296.39
1317.38
1344.83
1314.9
1308.54
1304.94
1304.63
1303.76
1303.8
1303.64
1303.28
1303.2
1303.8
1304.17
1304.38
1304.22
1303.94
1302.21
1303.91
1304.07
1304.84
1304.29
1307.46
1313.93
1343.45
1311.53
1329.54
1342.1
1315.9
1311.99
1303.33
1304
1303.85
1303.83
1303.79
1303.31
1303.39
1304.02
1304.37
1304.55
1304.32
1303.88
1302.33
1303.47
1303.88
1304.73
1303.42
1311.48
1312.1
1338.52
1316.26
1332.24
1351.17
1319.05
1309.72
1306.75
1306.01
1304.7
1304.38
1304
1303.62
1303.62
1304.02
1304.52
1304.87
1304.66
1304.18
1302.68
1304.19
1304.9
1306.26
1306.21
1308.21
1318.89
1349.19
1326.95
1339.04
1360.46
1329.21
1317.07
1306.64
1306.08
1305.16
1304.7
1304.31
1304.31
1304.24
1304.43
1305.17
1305.55
1305.21
1304.46
1303.32
1304.3
1305.15
1306.61
1306.79
1317.2
1325.85
1358.32
1322.04
1359.89
1384.8
1344.33
1321.09
1315.83
1311.57
1308.47
1306.78
1305.9
1305.51
1305.31
1305.67
1306.36
1306.93
1306.48
1305.49
1304.78
1306.34
1307.96
1311.5
1314.92
1320.48
1341.25
1381.1
1350.55
1537.24
1507.93
1387.32
1350.68
1322.34
1315.57
1311.75
1309.39
1308.59
1308.07
1307.73
1308.32
1309.1
1309.75
1309.18
1308
1307.62
1309.06
1311.04
1315.43
1321.68
1348.05
1384.04
1507.5
1522.04
1836.62
1575.81
1429.16
1362.42
1342.21
1326.35
1319.4
1315.83
1314.4
1313.6
1313.19
1313.89
1314.9
1315.55
1314.94
1313.79
1313.52
1315.47
1318.49
1325.87
1339.1
1361.67
1425.9
1566.68
1828.5
2512.6
1804.12
1523.1
1431.57
1359.61
1342.29
1333.22
1328.95
1326.89
1325.83
1325.38
1325.99
1327.22
1327.85
1327.34
1326.58
1326.27
1328.59
1332.62
1340.86
1357.71
1421.58
1512.46
1808.01
2443.06
2818.07
2306.2
1778.73
1487.99
1432.45
1390.98
1368.99
1361
1356.61
1354.99
1354.39
1354.8
1355.95
1356.54
1356.21
1356.22
1356.45
1360.36
1368.16
1393.74
1421.79
1477.26
1741.52
2296.21
2843.57
2795.83
2679.49
2442.79
2301.38
1588.33
1494.39
1472.44
1455.03
1448.85
1446.42
1445.7
1445.91
1446.74
1447.1
1447.26
1448.21
1449.88
1455.68
1474.35
1502.77
1612.78
2315.96
2389.69
2704.62
2783.18
2711.83
2673.54
2820.47
2808.8
2095.38
2090.45
1875.9
1775.93
1740.1
1730.31
1726.45
1725.21
1725.11
1726.45
1728.05
1732.43
1743.12
1780.07
1896.83
2129.6
2114.3
2819.75
2827.06
2706.87
2701.46
2645.16
2700.71
2790.8
2791.58
2809.42
2926.68
3096.48
3092.48
3232.37
3218.23
3246.68
3230.64
3245.84
3240.06
3244.3
3224.47
3233.24
3116.97
3118.36
2966.61
2826.58
2810.45
2810.41
2700.53
2656.59
2521.03
2583.89
2787.72
2929.94
2974.7
3312.66
3576.22
3682.64
3688.05
3672.53
3660.21
3657.56
3654.74
3657.19
3659.5
3668.35
3685.29
3690.61
3596.84
3356.25
2992.07
2933.14
2796.24
2607.06
2565.88
2431.58
2571.92
2686.91
2826.64
2952.13
3245.78
3537.36
3641.72
3667.22
3655.27
3645.82
3642.58
3641.03
3642.93
3644.27
3650.78
3664.88
3652.02
3573.75
3309.25
2978.95
2857.33
2713.02
2579.25
2436.44
2234.71
2426.62
2751.1
2951.56
2926.07
3168.71
3381.34
3486.96
3506.08
3515.07
3510.75
3512.92
3511.19
3513.26
3509.44
3510.92
3498.44
3470.84
3359.01
3165.07
2939.51
2947.31
2715.7
2387.05
2224.48
2100.52
2232.08
2552.43
2714.98
2726.36
2856.2
3098.08
3298.46
3380.65
3406.22
3414.84
3416.89
3417.79
3416.5
3412.35
3399.71
3379.69
3315.32
3123.87
2877.36
2754.35
2750.49
2553.85
2230.11
2104.27
2220.24
2066.04
2417.47
2495.32
2528.38
2618.14
2823.66
3071.21
3233.99
3297.62
3311.21
3322.18
3323.37
3322.78
3310.51
3297.1
3244.47
3092.23
2834.77
2629.71
2536.67
2495.98
2379.84
2064.88
2227.7
3049.7
2286.89
2186.6
2302.17
2369.5
2465.82
2645.68
2890.6
3080.44
3176.53
3208.34
3215.97
3220.58
3216.31
3207.89
3176.91
3085.99
2893.96
2641.53
2468.22
2371.2
2291.58
2171.96
2277.62
3162.01
3019.78
2086.33
1984.34
2146.02
2241.17
2353.87
2509.33
2739.39
2944.86
3056.02
3092.24
3109.74
3111.32
3109.92
3090.68
3052.39
2942.05
2736.33
2504.01
2359.04
2234.02
2134.47
1972.74
2093.91
3048.89
2989.78
2093.96
1890.33
2034.51
2136.85
2267.87
2397.18
2609.82
2810.27
2936.08
2984.42
2995.51
3001.73
2994.23
2981.07
2932.95
2810.66
2609.72
2394.68
2274.72
2131.13
2023.81
1870.62
2100.13
3028.39
2894.77
2073.62
1892.38
1970.27
2066.78
2179.41
2303.46
2509.88
2705.55
2823.11
2868.94
2891.12
2892.27
2889.88
2865.81
2818.63
2703.92
2510.78
2298.5
2182.65
2058.9
1960.53
1884.92
2063.88
2877.41
2796.02
2059.51
1909.67
1939.98
2005.21
2099.59
2219.18
2420.92
2600.73
2718.93
2769.09
2781
2787.92
2779.03
2764.59
2712.03
2594.48
2412.75
2208.72
2098.64
2007.27
1933.58
1900.74
2074.47
2826
2781.03
2083.07
1930.47
1918.59
1961.68
2029.05
2149.71
2342.32
2514.55
2619.47
2662.62
2684.65
2685.46
2683.24
2658.24
2612.8
2509.2
2339.73
2143.49
2027.35
1958.8
1914.7
1920.47
2070.08
2770.49
2742.78
2110.73
1961.83
1907.6
1922.05
1973.98
2090.86
2273.74
2426.94
2528.76
2574.93
2583.08
2590.24
2580.69
2567.57
2521.34
2419.96
2265.84
2082.13
1970.42
1923.6
1908.85
1946.62
2113.59
2767.16
2743.03
2165.39
1984.86
1911.27
1900.28
1930.2
2046.95
2217.1
2360.1
2444.02
2478.3
2498
2498.05
2496.45
2471.89
2434.3
2348.78
2207.7
2036.59
1925.75
1894.81
1912.54
1964.48
2167.32
2775.42
2771.98
2173.24
1982.46
1908.75
1879.9
1898.86
2003.19
2158.58
2281.12
2361.59
2401.62
2407.16
2414.38
2404.46
2394.83
2356.18
2276.43
2154.08
1997.98
1900.15
1881.03
1908.89
1974.06
2144.31
2774.66
2819.65
2188.72
1992.51
1907.07
1869.59
1877.72
1979.78
2117.64
2228.19
2291.71
2316.09
2334.1
2332.91
2331.5
2308.92
2281.32
2218.12
2111.66
1970.41
1876.52
1864.53
1911.64
1976.03
2174.9
2815.44
2775.08
2187
1974.17
1908.93
1846.72
1867.11
1956.32
2077.12
2163.69
2217.73
2251.17
2253.14
2260.27
2250.48
2244.24
2212.68
2154.58
2067.5
1944.68
1865.32
1847.92
1908.93
1977.03
2170.96
2804.67
2769.51
2196.79
2004.46
1916.22
1837.48
1851.3
1936.84
2041.48
2118.68
2161.41
2175.61
2190.89
2189.28
2189.69
2169
2152.26
2111.56
2042.61
1929.15
1849.96
1840.39
1914.48
1986.99
2182.54
2769.53
2737.3
2194.66
2015.65
1905.46
1830.96
1844.15
1920.26
2008.51
2065.78
2095.37
2122.4
2120.24
2127.18
2118.42
2115.42
2091.3
2055.43
2002.48
1913.76
1841.3
1832.3
1909.2
2010.17
2172.42
2761.45
2709.73
2184.84
2062.85
1931.59
1833.55
1831.41
1908.42
1980.5
2028.86
2053.21
2057.41
2068.56
2066.04
2067.83
2050.2
2044.28
2022.15
1980.06
1898.31
1826.18
1837.79
1922.91
2045.32
2179.18
2735.91
2702.6
2195.58
2093.39
1924.3
1842.31
1826.87
1889.3
1950.05
1983.43
1992.37
2014.01
2007.78
2013.82
2006.3
2007.74
1989.97
1973.84
1947.58
1889.2
1820.99
1851.22
1925.07
2102.54
2170.28
2714.17
2678.6
2186.67
2088.73
1955.41
1854.65
1820.27
1877.53
1926.15
1949.07
1963.51
1959.07
1966.78
1962.34
1965.07
1951.82
1955.75
1945.45
1923.62
1870.99
1819.5
1862.67
1956.67
2099.7
2178.85
2687.98
2648.17
2174.56
2086.23
1972.24
1870.12
1830.07
1866.89
1896.49
1912.03
1908.39
1924.42
1914.38
1919.21
1912.38
1919.24
1906.13
1902.15
1893.22
1864.35
1821.77
1876.73
1983.24
2097.69
2163.26
2660
2627.58
2156.13
2080.68
2038.02
1893.17
1839.58
1859.71
1876.85
1878.09
1886.89
1877.84
1881.62
1875.86
1880.74
1871.72
1880.86
1878.17
1872.15
1855.83
1847.35
1895.91
2044.78
2087.77
2146.42
2626.04
2606.33
2144.19
2067.62
2024.99
1908.9
1863.34
1861.66
1849.76
1849
1836.8
1849.04
1835.68
1840.25
1835.39
1845.04
1835.22
1839.54
1850.63
1855.19
1864.67
1924.19
2042.32
2072.69
2128.57
2614.33
2575.55
2122.63
2038.34
2030.58
1954.72
1876.96
1871.7
1838.4
1821.93
1824.18
1809.89
1810.13
1803.92
1810.45
1804.27
1817.08
1822.5
1836.37
1866.11
1885.74
1969.99
2037.98
2034.63
2121.14
2590.31
2561.28
2116.79
2007.9
2012.13
2009.46
1910.78
1892.84
1822.39
1802.22
1778.46
1785.87
1770.45
1774.22
1770.4
1782.82
1775.87
1793.13
1826.8
1889.2
1910.26
2041.01
2028.62
2003.1
2102.3
2569.05
2533.84
2104.17
1981.79
2005.2
2015.43
1932.92
1892.26
1828.28
1786.84
1776.27
1753.42
1751.12
1744.06
1750.85
1748.73
1770.1
1787.72
1831.04
1899.14
1959.74
2038.95
2011.74
1979.56
2100.98
2545.28
2513.25
2093.31
1962.92
1967.41
1997.39
1988.64
1924.1
1833.66
1786.29
1735.17
1734.66
1716.4
1719.38
1716.53
1732.48
1731.95
1774.42
1836.38
1931.55
2025.36
2018.1
1974.33
1962.57
2094.18
2528.6
2479.78
2085.66
1946.36
1943.21
1988.94
2038.85
1940.87
1844.46
1781.56
1753.36
1711.67
1703.02
1694.44
1703.04
1707.38
1748.31
1781.41
1847.33
1965.21
2052.66
2004.4
1948.74
1947.21
2077.84
2496.05
2463.46
2081.5
1939.7
1909.9
1952.75
2020.32
1999.56
1860.86
1794.15
1716.86
1703.39
1675.48
1675.73
1675.72
1701.82
1715.42
1788.3
1870.58
2049.33
2036.78
1955.01
1916.83
1942.31
2076.22
2478.48
2429.39
2059.32
1925.94
1895.36
1923.29
2008
2079.43
1897.14
1796.4
1756.02
1700.92
1676.86
1661.25
1676.39
1694.66
1752.36
1801.12
1909.55
2073.83
2013.43
1924.92
1898.88
1931.88
2061.12
2446.84
2414.83
2058.2
1925.67
1872.09
1886.94
1976.14
2058.9
1971.23
1825.9
1724.35
1703.68
1661.01
1655.97
1661.89
1700.31
1721.38
1827.5
1995.23
2064.01
1979.77
1888.92
1882.37
1929.07
2050.84
2434.42
2376.27
2036.61
1910.99
1869.25
1870.26
1933.57
2040.43
2051.5
1859.64
1771.96
1704.98
1678.24
1657.13
1679.29
1700.8
1772.53
1885.07
2048.35
2040.69
1935.43
1872.9
1875.02
1916.57
2036.01
2388.92
2345.59
2025.71
1905.85
1851.11
1847.81
1899.4
2017.56
2033.28
1958.62
1753.52
1714.93
1662.9
1660.16
1663.82
1714.52
1753.01
1996.32
2037.18
2017.96
1904.08
1851.55
1863.89
1909.76
2024.1
2362.31
2207.9
1977.17
1879.82
1848.93
1843.11
1866.31
1971.92
2020.91
2010.66
1853.95
1734.77
1690.39
1667.97
1691.61
1733.44
1853.72
2002.92
2020.29
1976
1873.73
1846.97
1855.11
1883.96
1975.56
2219.43
279.278
279.404
279.996
279.808
280.122
280.848
281.303
281.911
282.157
282.339
282.399
282.685
283.149
283.725
284.324
284.801
285.478
287.022
289.268
291.733
294.285
296.978
299.437
301.965
305.62
310.393
321.326
360.161
391.148
408.657
279.537
279.953
280.522
280.416
280.728
281.278
281.757
282.46
282.877
283.188
283.217
283.368
283.716
284.108
284.359
284.552
285.003
285.7
287.334
290.058
292.609
295.351
298.096
301.605
305.759
315.333
345.323
380.972
387.387
404.421
280.066
280.929
281.339
281.087
281.232
281.77
282.284
283.058
283.554
283.913
284.187
284.393
284.613
284.822
284.903
285.024
284.977
285.354
286.557
288.852
291.84
294.644
297.972
302.002
308.784
327.49
378.241
385.261
387.694
402.994
281.017
281.95
282.015
281.532
281.729
282.297
282.85
283.608
284.136
284.609
284.937
285.154
285.245
285.273
285.269
285.164
285.066
285.22
286.208
288.193
291.327
294.24
298.095
303.006
315.579
362.937
383.264
385.589
388.217
399.845
282.035
282.341
282.374
281.935
282.19
282.778
283.325
284.03
284.574
285.138
285.511
285.798
285.881
285.77
285.553
285.345
285.237
285.283
286.179
288.064
291.108
294.405
298.533
306.653
334.931
380.536
384.673
386.559
388.16
395.013
282.478
282.437
282.551
282.263
282.615
283.176
283.713
284.375
284.94
285.604
286.133
286.467
286.595
286.39
286.118
285.753
285.553
285.548
286.408
288.269
290.994
294.708
300.316
316.916
373.601
383.047
385.103
385.336
386.382
392.193
282.641
282.467
282.685
282.629
283.087
283.654
284.194
284.833
285.416
286.18
286.811
287.158
287.287
287.117
286.772
286.475
286.365
286.313
286.891
288.627
291.276
295.685
305.808
350.031
380.9
383.61
384.118
383.11
384.115
389.477
282.709
282.492
282.818
283.065
283.636
284.289
284.852
285.441
286.014
286.814
287.465
287.86
288.061
287.968
287.531
287.344
287.343
287.398
287.93
289.182
291.909
298.566
321.65
376.304
382.32
383.491
382.246
380.391
382.468
386.88
282.771
282.553
283.04
283.609
284.291
285.011
285.551
286.071
286.659
287.368
288.067
288.543
288.793
288.883
288.604
288.368
288.334
288.407
288.673
289.737
293.405
305.882
360.76
380.62
382.813
382.42
379.894
378.185
381.493
384.448
282.79
282.77
283.412
284.237
285.024
285.685
286.194
286.665
287.225
287.861
288.587
289.223
289.621
289.91
289.799
289.359
289.164
289.174
289.274
290.537
297.007
328.283
376.47
381.637
382.185
380.718
378.011
376.866
380.727
382.165
282.887
283.27
283.998
284.942
285.75
286.339
286.848
287.319
287.791
288.445
289.353
290.082
290.57
290.937
290.752
290.186
289.891
289.852
289.792
292.473
305.917
365.6
379.888
381.883
381.277
378.74
376.929
375.908
379.954
380.456
283.338
284.056
284.806
285.762
286.554
287.144
287.626
288.118
288.517
289.295
290.216
290.964
291.465
291.839
291.598
291.003
290.573
290.032
290.802
296.481
332.889
376.111
381.058
381.228
380.337
377.511
376.045
375.18
379.188
379.43
284.253
285.067
285.76
286.818
287.65
288.159
288.627
289.043
289.537
290.235
291.144
291.9
292.428
292.823
292.548
291.809
291.007
290.805
292.766
306.354
367.083
379.688
381.559
381.03
379.176
376.991
375.398
374.675
378.528
378.478
285.441
286.203
286.902
288.104
289.081
289.568
289.914
290.351
290.879
291.411
292.368
293.085
293.534
293.808
293.477
292.727
291.846
292.202
297.125
335.254
376.801
381.63
381.765
381.064
378.693
376.625
374.922
374.317
377.977
377.602
286.769
287.472
288.277
289.608
290.739
291.491
291.883
292.24
292.738
293.278
293.98
294.657
295.055
295.309
294.908
294.045
293.336
294.761
307.639
368.13
381.475
383.211
382.425
381.235
378.671
376.518
374.694
374.204
377.718
377.055
288.032
288.819
289.794
291.256
292.732
294.021
294.781
295.282
295.905
296.454
296.96
297.389
297.555
297.564
296.964
295.807
295.701
300.104
337.078
379.566
384.803
384.845
383.744
381.581
379.014
376.656
374.645
374.336
377.647
376.749
289.223
290.144
291.479
293.561
295.862
298.113
299.828
300.857
301.577
301.727
302.006
301.954
301.598
301.036
299.431
298.306
299.717
311.972
372.405
387.73
388.981
387.557
385.403
382.323
379.693
376.983
374.857
374.848
377.831
376.623
290.278
291.484
293.61
297.292
301.762
305.995
309.526
311.126
311.487
310.855
310.53
309.265
307.659
305.601
303.744
303.029
307.239
349.248
393.483
397.135
394.702
391.161
387.187
383.802
380.542
377.448
375.313
375.517
378.151
376.612
290.859
293.079
297.184
305
314.079
321.804
327.571
328.903
328.254
325.598
324.438
321.507
318.321
314.957
311.825
311.207
328.628
400.076
407.288
406.101
400.704
394.687
389.336
385.338
381.656
378.115
375.911
376.188
378.468
376.833
292.24
295.72
305.197
322.385
340.032
352.18
360.193
361.063
356.798
350.717
348.18
342.396
336.415
330.226
325.738
332.017
397.408
422.91
420.89
415.209
406.926
398.04
391.899
386.935
382.662
378.736
376.562
376.899
378.954
377.043
293.397
300.748
324.908
363.812
391.378
407.27
415.326
411.692
399.81
389.593
384.8
375.151
366.016
358.04
358.297
409.254
446.288
442.004
435.121
425.415
412.411
402.097
394.288
388.572
383.734
379.374
377.27
377.782
379.525
377.204
293.435
314.803
377.557
445.57
473.82
488.16
494.588
475.372
457.352
444.346
438.948
431.073
427.205
429.895
451.399
481.178
477.4
464.115
450.926
434.798
418.284
405.889
396.857
390.282
384.83
380.134
378.131
378.656
380.018
377.342
309.194
353.874
509.29
566.62
582.97
586.089
584.585
546.273
531.424
532.834
546.364
560.707
556.193
537.5
533.779
530.659
510.47
487.174
466.718
443.141
424.068
409.522
399.313
392.012
385.99
381.068
379.331
379.54
380.437
377.397
295.869
446.492
664.377
690.033
698.828
689.605
672.046
641.097
669.657
719.521
725.454
716.253
683.309
637.724
612.994
583.018
540.587
506.799
479.066
450.392
428.826
413.214
402.094
393.928
387.154
382.104
380.707
380.547
380.923
377.392
339.746
666.638
823.134
813.041
817.585
784.449
783.543
831.546
899.775
919.644
917.363
898.074
837.996
761.844
692.635
638.886
570.629
523.9
485.112
455.114
432.247
416.415
405.036
396.202
388.648
383.435
381.95
381.56
381.543
377.518
408.841
391.43
360.009
321.238
310.37
305.619
301.985
299.424
296.967
294.283
291.753
289.266
287.028
285.483
284.825
284.356
283.728
283.153
282.708
282.439
282.361
282.275
282.081
281.453
280.988
280.222
279.894
280.067
279.457
279.289
404.68
387.595
381.087
345.219
315.321
305.77
301.624
298.132
295.35
292.618
290.071
287.306
285.727
285.029
284.64
284.467
284.202
283.787
283.476
283.378
283.525
283.185
282.734
282.026
281.533
280.977
280.618
280.691
280.097
279.622
403.311
387.902
385.451
378.344
327.497
308.815
302.03
298.004
294.66
291.847
288.825
286.572
285.401
285.104
285.136
285.086
285.018
284.826
284.65
284.51
284.286
283.937
283.381
282.604
282.085
281.553
281.4
281.625
281.147
280.23
400.253
388.434
385.792
383.416
363.036
315.634
303.047
298.122
294.268
291.353
288.237
286.258
285.298
285.202
285.338
285.486
285.55
285.6
285.571
285.404
285.018
284.517
283.958
283.191
282.645
282.088
281.895
282.377
282.328
281.284
395.454
388.395
386.771
384.837
380.642
335.05
306.693
298.558
294.445
291.146
288.128
286.248
285.392
285.381
285.549
285.852
286.159
286.364
286.356
286.053
285.603
284.969
284.404
283.702
283.16
282.578
282.33
282.77
282.756
282.379
392.619
386.631
385.548
385.271
383.158
373.704
316.984
300.353
294.749
291.041
288.344
286.488
285.676
285.771
286.032
286.447
286.811
287.142
287.077
286.697
286.082
285.346
284.765
284.111
283.597
283.037
282.679
282.952
282.832
282.844
389.857
384.35
383.31
384.26
383.715
380.96
350.201
305.864
295.733
291.337
288.74
287.03
286.538
286.618
286.806
287.163
287.647
287.905
287.777
287.396
286.662
285.849
285.241
284.598
284.084
283.541
283.065
283.091
282.853
283.026
387.202
382.666
380.571
382.367
383.567
382.368
376.34
321.75
298.625
291.979
289.297
288.164
287.709
287.649
287.739
288.064
288.591
288.702
288.434
287.98
287.255
286.458
285.885
285.282
284.738
284.098
283.511
283.224
282.873
283.091
384.676
381.627
378.308
379.978
382.452
382.846
380.629
360.883
305.978
293.508
289.884
288.966
288.804
288.738
288.809
289.196
289.597
289.392
289.061
288.479
287.758
287.104
286.568
286.058
285.51
284.767
284.063
283.446
282.907
283.121
382.307
380.795
376.912
378.021
380.722
382.185
381.635
376.51
328.456
297.153
290.749
289.585
289.617
289.755
290.078
290.558
290.59
290.264
289.738
288.995
288.264
287.682
287.199
286.774
286.25
285.526
284.705
283.819
283.124
283.137
380.484
379.942
375.896
376.88
378.691
381.263
381.868
379.908
365.774
306.142
292.78
290.229
290.309
290.556
291.053
291.6
291.627
291.22
290.602
289.775
288.883
288.289
287.858
287.41
286.9
286.289
285.419
284.396
283.649
283.259
379.345
379.115
375.128
375.964
377.42
380.297
381.243
381.078
376.305
333.409
296.898
291.362
290.711
291.317
291.922
292.503
292.539
292.121
291.472
290.64
289.718
289.063
288.675
288.147
287.632
287.029
286.222
285.209
284.476
283.768
378.388
378.428
374.596
375.3
376.89
379.144
381.106
381.666
379.904
367.582
306.96
293.473
291.66
291.965
292.87
293.483
293.523
293.091
292.415
291.567
290.667
290.051
289.545
289.077
288.599
288.001
287.189
286.174
285.507
284.753
377.487
377.881
374.236
374.827
376.54
378.711
381.233
381.957
381.853
377.2
336.005
297.995
293.15
292.951
293.79
294.334
294.477
294.094
293.573
292.812
291.886
291.243
290.741
290.281
289.934
289.331
288.381
287.266
286.626
285.987
376.944
377.638
374.12
374.62
376.453
378.73
381.492
382.785
383.55
381.951
368.932
308.686
295.784
294.22
294.874
295.55
295.817
295.489
295.099
294.449
293.616
293.072
292.512
292.038
291.71
290.945
289.825
288.59
287.864
287.265
376.669
377.573
374.252
374.599
376.626
379.089
381.91
384.303
385.417
385.548
380.585
338.41
301.157
296.45
296.361
297.334
297.966
297.921
297.803
297.414
296.784
296.207
295.553
295.058
294.274
292.988
291.492
290.069
289.163
288.413
376.571
377.795
374.782
374.883
377.021
379.813
382.669
386.082
388.469
389.995
388.94
374.257
313.13
300.354
298.791
299.586
301.252
301.921
302.415
302.437
302.138
301.92
301.281
300.319
298.578
296.338
293.884
291.787
290.442
289.538
376.619
378.193
375.54
375.387
377.544
380.716
384.169
387.89
392.199
395.67
398.173
394.691
350.746
307.943
303.646
304.33
306.124
307.966
309.892
311.186
311.751
312.428
311.903
310.468
306.88
302.606
297.852
293.964
291.747
290.537
376.876
378.579
376.282
376.062
378.286
381.893
385.778
389.985
395.716
401.812
407.07
408.287
401.453
329.954
312.159
312.778
316.091
319.266
323.053
325.609
327.309
330.907
331.09
329.319
323.593
315.724
306.178
297.858
293.398
291.096
377.096
379.066
377.052
376.804
379.018
382.982
387.363
392.612
398.871
408.1
416.198
421.817
424.184
400.011
333.913
327.449
332.226
337.883
345.017
350.031
353.063
359.614
364.499
363.576
355.372
343.208
324.686
306.449
296.198
292.408
377.271
379.674
377.984
377.596
379.74
384.145
389.091
395.007
402.906
413.375
426.513
436.081
443.425
448.418
414.25
362.656
362.71
369.224
379.739
387.046
392.284
403.408
415.404
421.227
413.452
397.421
368.618
327.461
301.588
293.636
377.482
380.253
378.945
378.438
380.494
385.257
390.779
397.517
406.768
419.024
436.041
452.089
465.855
479.864
484.367
458.651
442.687
439.034
442.678
445.788
448.429
460.695
479.001
501.288
497.643
483.318
454.045
383.446
316.641
293.861
377.626
380.701
379.829
379.575
381.502
386.499
392.538
399.972
410.2
425.163
444.225
467.733
488.981
513.563
534.941
538.8
547.194
567.72
583.207
569.085
546.317
539.606
552.245
592.009
595.828
592.535
576.278
520.241
359.237
310.473
377.669
381.197
380.849
380.989
382.508
387.705
394.446
402.669
413.71
429.358
451.885
479.71
508.815
544.197
587.848
620.02
650.821
694.822
737.329
747.627
746.279
692.708
654.944
681.894
700.172
708.64
699.638
676.055
455.46
297.773
377.797
381.792
381.847
382.252
383.74
389.092
396.681
405.654
417.082
433.01
456.249
485.394
525.586
574.757
644.501
701.729
778.457
853.775
923.576
944.989
946.664
923.407
861.295
800.531
797.298
828.402
823.594
834.248
679.701
343.655
274.003
274.003
274.003
274.003
274.003
274.003
274.003
274.003
274.003
274.003
274.003
274.003
274.003
274.003
274.003
274.003
274.003
274.003
274.005
274.269
288.705
615.858
1174.14
1251.15
1249.52
1250.79
1240.37
1234.93
1223.72
1187.29
1136.04
1090.63
1075.55
1071.54
1065.8
1054.2
1050.3
1045.26
1039.22
1029.03
1016.36
1007.56
1001
997.627
995.516
992.649
987.502
982.347
976.465
966.572
954.099
939.294
922.03
900.963
877.823
854.954
831.614
808.613
786.878
767.049
749.097
731.779
715.392
699.895
685.52
671.586
658.442
645.9
634.186
623.381
613.147
603.407
594.059
585.206
576.724
568.481
560.505
552.773
545.196
538.048
531.362
525.087
519.187
513.499
508.034
502.977
498.294
493.683
489.15
484.697
480.372
476.169
472.014
467.878
463.727
459.562
455.415
451.302
447.204
443.087
438.953
434.805
430.694
426.634
422.616
418.663
414.804
410.914
407.151
403.669
400.376
397.374
394.595
391.86
389.249
386.822
384.688
383.075
381.887
380.706
379.837
379.155
378.761
378.364
378.01
274.001
274.001
274.001
274.001
274.001
274.001
274.001
274.001
274.001
274.001
274.001
274.001
274.001
274.001
274.001
274.001
274.001
274.001
274.004
274.192
283.54
541.175
1099.92
1244.47
1262.68
1243.13
1217.4
1180.43
1109.98
1063.53
1037.43
1031.92
1033.96
1039.29
1049.75
1055.97
1056.19
1052.26
1047.89
1044.3
1038.15
1032.76
1028.61
1025.11
1023.68
1023.29
1023.66
1023.51
1021.69
1015.96
1006.49
987.526
966.823
943.932
918.641
892.674
865.558
838.84
813.771
790.528
769.069
749.209
730.471
713.585
698.55
684.296
670.924
658.384
646.683
635.831
625.644
615.875
606.396
597.406
588.755
580.322
572.202
564.275
556.526
549.185
542.296
535.766
529.49
523.405
517.659
512.26
507.282
502.435
497.715
493.074
488.525
484.068
479.628
475.18
470.749
466.285
461.798
457.355
452.863
448.298
443.752
439.264
434.852
430.543
426.382
422.349
418.488
414.698
411.102
407.732
404.563
401.723
399.02
396.39
393.909
391.584
389.577
388.164
386.935
385.71
384.768
384.011
383.447
382.957
382.423
274
274
274
274
274
274
274
274
274
274
274
274
274
274
274
274
274
274
274.001
274.037
276.04
369.554
868.191
1203.84
1263.96
1213.7
1138.98
1031.66
978.263
965.903
981.736
1021.94
1060.06
1075.77
1079.61
1083.96
1087.15
1086.22
1080.53
1078.33
1077.84
1079.39
1080.51
1083.38
1088.03
1094.28
1104.87
1120.79
1143.97
1161.21
1165.47
1158.72
1128.19
1086.76
1039.07
990.414
939.494
897.108
858.875
825.692
797.713
774.01
752.426
732.005
713.932
697.295
682.159
668.142
655.17
643.163
632.179
621.97
612.306
603.258
594.608
586.095
577.921
570.04
562.377
555.139
548.314
541.819
535.716
529.946
524.539
519.399
514.56
509.827
505.256
500.826
496.551
492.44
488.303
484.133
479.897
475.516
471.045
466.56
462.036
457.443
452.724
448.012
443.366
438.793
434.357
430.078
426.062
422.131
418.329
414.733
411.269
407.991
404.823
401.685
398.595
395.716
393.322
391.562
389.829
388.263
386.887
385.674
384.65
383.765
382.855
274
274
274
274
274
274
274
274
274
274
274
274
274
274
274
274
274
274
274
274.014
274.859
317.624
730.098
1162.8
1217.16
1131.43
1016.32
978.186
979.815
1001.36
1041.84
1063.52
1071.16
1076.89
1082.25
1090.85
1101.93
1114.98
1126.26
1134.65
1141.89
1149.89
1161.51
1178.68
1204.7
1243.25
1298.11
1377.15
1483.83
1585.77
1616.63
1606.53
1534.58
1433.86
1326.49
1224.95
1124.79
1033.95
958.669
899.897
853.678
816.67
784.901
757.788
734.712
714.766
697.734
682.449
668.976
657.298
646.33
635.883
625.981
616.391
606.836
597.275
588.597
580.134
571.998
564.543
557.397
550.808
544.651
538.785
533.331
528.212
523.355
518.441
513.465
508.75
504.207
499.669
495.084
490.545
485.978
481.392
476.822
472.22
467.576
462.957
458.336
453.673
449.028
444.433
439.942
435.587
431.433
427.273
423.337
419.571
416.028
412.635
409.389
406.13
402.978
399.885
397.383
395.38
393.171
391.24
389.456
387.764
386.166
384.751
383.487
274
274
274
274
274
274
274
274
274
274
274
274
274
274
274
274
274
274
274
274.001
274.051
276.358
373.881
828.045
1082.29
1008.5
989.131
1018.21
1046.52
1067.55
1069.96
1064.25
1072.71
1083.79
1094.15
1105.61
1122.55
1145.74
1173.25
1200.33
1227.16
1257.51
1297.01
1356.85
1449.58
1595.15
1814.14
2114.78
2395.62
2489.3
2503.67
2467.33
2355.31
2198.01
2005.73
1792.1
1584.84
1378.87
1192.49
1066.1
980.705
915.737
859.9
814.205
779.682
751.151
727.382
707.751
691.467
677.634
665.953
655.144
644.647
634.585
625.163
615.85
606.251
596.464
587.24
578.866
571.016
563.87
557.098
550.882
545.097
539.379
533.72
527.958
522.387
516.929
511.419
506.264
501.269
496.589
491.946
487.277
482.545
477.774
472.98
468.127
463.295
458.585
453.979
449.46
445.124
440.96
437.02
433.1
429.35
425.564
421.88
418.337
414.787
411.23
407.778
404.762
402.246
399.687
397.449
395.404
393.457
391.3
389.162
387.196
385.368
274
274
274
274
274
274
274
274
274
274
274
274
274
274
274
274
274
274
274
274.004
274.129
277.44
351.528
659.553
782.074
839.643
896.131
985.716
1041.12
1062.1
1078.56
1093.12
1105.3
1110.72
1117
1136.77
1164.12
1198.76
1239.9
1300.2
1365.28
1439.03
1549.43
1739.37
2025.3
2372.05
2635.06
2735.59
2776.8
2792.45
2794.52
2774.43
2724.15
2635.6
2518.02
2356.61
2146.59
1915.23
1660.11
1432.2
1263.56
1134.9
1025.3
937.533
871.811
819.928
778.901
748.12
724.815
706.284
689.993
675.915
662.979
651.127
641.089
632.58
623.773
614.878
606.073
597.495
589.009
581.099
572.99
565.267
558.18
551.596
545.173
539.187
533.052
527.278
521.916
516.755
511.756
506.709
501.117
495.57
490.178
485.137
480.353
475.768
471.335
466.943
462.645
458.358
454.076
449.8
445.56
441.358
437.601
433.876
430.316
426.577
422.904
419.289
415.678
412.29
409.209
406.234
403.84
401.68
399.619
397.475
395.165
392.65
390.756
274
274
274
274
274
274
274
274
274
274
274
274
274
274
274
274
274
274
274.001
274.046
275.303
305.263
552.407
706.19
762.811
793.044
814.037
848.246
914.654
1032
1079.91
1103.86
1123.77
1146.73
1168.08
1189.66
1240.54
1301.68
1383.91
1499.24
1646.25
1840.95
2123.51
2423.13
2545.35
2618.56
2698.04
2753.61
2779.79
2800.24
2798.34
2798.39
2803.25
2756.14
2648.25
2519.26
2378.63
2198.67
1988.94
1767.19
1571.42
1402.18
1259.09
1144.39
1055.41
972.181
904.329
851.201
809.684
777.753
748.295
720.466
699.945
683.153
668.304
656.16
645.884
636.324
627.09
618.215
609.434
600.732
592.048
583.534
575.277
567.479
560.252
552.897
545.996
539.698
533.736
527.972
522.5
516.802
511.168
505.725
500.613
495.463
490.433
485.529
480.657
475.881
471.434
467.177
463.006
458.741
454.438
450.019
445.842
441.414
437.114
433.083
429.382
425.783
421.919
418.253
415.275
412.497
410.081
408.131
406.374
404.54
402.76
400.826
399.139
274
274
274
274
274
274
274
274
274
274
274
274
274
274
274
274
274
274.001
274.016
274.518
287.188
475.094
687.009
731.648
756.55
770.201
782.836
799.965
830.607
888.373
991.799
1075.21
1113.47
1143.77
1185.5
1247.28
1318.81
1422.19
1556.97
1731.22
1961.77
2243.82
2441.33
2511.34
2548.83
2580.85
2569.61
2576.85
2608.11
2597.18
2635.66
2757.4
2857.81
2886.16
2885.04
2717.67
2527.88
2358.29
2168.53
1971.01
1786.38
1623.41
1475.13
1344.79
1231.95
1140.75
1068.01
997.297
930.986
875.808
832.491
797.402
765.39
736.645
713.434
693.91
677.756
664.034
652.279
642.036
632.239
622.471
613.093
604.397
596.504
588.809
580.923
572.718
564.925
557.583
550.77
544.741
538.451
531.902
525.502
519.477
514.073
508.275
502.867
497.73
492.955
488.759
484.211
479.24
474.253
469.306
464.607
460.242
455.792
451.182
446.721
442.249
437.853
433.859
429.749
426.119
422.87
419.933
417.557
415.396
413.637
412.167
411.207
410.074
408.549
274