/*--------------------------------*- C++ -*----------------------------------*\
| =========                 |                                                 |
| \\      /  F ield         | OpenFOAM: The Open Source CFD Toolbox           |
|  \\    /   O peration     | Version:  2112                                  |
|   \\  /    A nd           | Website:  www.openfoam.com                      |
|    \\/     M anipulation  |                                                 |
\*---------------------------------------------------------------------------*/
FoamFile
{
    version     2.0;
    format      ascii;
    arch        "LSB;label=32;scalar=64";
    class       surfaceScalarField;
    location    "0.00457";
    object      phi;
}
// * * * * * * * * * * * * * * * * * * * * * * * * * * * * * * * * * * * * * //

dimensions      [1 0 -1 0 0 0 0];

oriented        oriented;

internalField   nonuniform List<scalar> 
27436
(
-0.533369
8.19275
-0.0931319
7.47158
-0.0834989
7.78626
-0.0691198
7.78644
-0.069255
7.79293
-0.0537914
7.78181
-0.0397801
7.78322
-0.028636
7.78514
-0.0222661
7.78968
-0.0161695
7.79032
-0.00710073
7.78863
0.0014993
7.78835
0.0144153
7.78389
0.0312562
7.78088
0.0472433
7.7817
0.0546198
7.78908
0.0542593
7.79495
0.064513
7.78745
0.0745207
7.78563
0.0945441
7.77771
0.0962627
7.79118
0.111478
7.78582
0.123473
7.78285
0.572326
7.46031
8.21334
-0.247259
8.44
-0.0963586
7.32069
-0.0820168
7.77198
-0.056563
7.76107
-0.0553292
7.7922
-0.0481888
7.7746
-0.0397612
7.77461
-0.0405369
7.78545
-0.0194863
7.76654
-0.00966804
7.77992
0.000133621
7.77959
0.0146193
7.77386
0.0148569
7.78369
0.0211793
7.77458
0.0207503
7.78213
0.0380935
7.77173
0.0498323
7.78319
0.0724794
7.76477
0.0678473
7.79026
0.0748889
7.77065
0.0718867
7.79414
0.102885
7.75485
0.114257
7.77126
0.268429
7.30636
8.48817
-0.227296
8.66731
-0.141379
7.23479
-0.121011
7.75166
-0.107949
7.74808
-0.0981063
7.78247
-0.0932922
7.76947
-0.0904022
7.771
-0.0813216
7.77592
-0.0749419
7.76171
-0.056073
7.75957
-0.0350509
7.75749
-0.0142868
7.75354
-0.0127417
7.78212
-0.0111092
7.77295
-0.00679888
7.77782
0.0151545
7.74979
0.028268
7.77005
0.0516806
7.74137
0.0550154
7.78693
0.0537851
7.77188
0.0617046
7.78622
0.0782016
7.73836
0.10053
7.74859
0.191998
7.21702
8.68369
-0.16966
8.83698
-0.139668
7.20481
-0.13442
7.74643
-0.112171
7.7259
-0.104409
7.7747
-0.0987878
7.76358
-0.0938926
7.7654
-0.0815474
7.76307
-0.0691129
7.75056
-0.0510437
7.74121
-0.0257711
7.73145
-0.00483553
7.73413
0.0028398
7.77442
0.00544883
7.77033
0.0149119
7.76836
0.0383958
7.72638
0.0528926
7.75558
0.0755807
7.71874
0.0880311
7.77444
0.0867797
7.77314
0.0913647
7.78164
0.117886
7.71172
0.111266
7.7551
0.161915
7.16704
8.8414
-0.0736836
8.91066
-0.036603
7.16771
-0.0917261
7.80157
-0.0585328
7.69275
-0.0590301
7.77531
-0.0583763
7.76294
-0.057176
7.76379
-0.0470054
7.75218
-0.0380727
7.74311
-0.0223353
7.72497
0.00170764
7.70665
0.0206753
7.71547
0.026825
7.76827
0.0282715
7.76888
0.0360417
7.76058
0.057736
7.70478
0.0677237
7.74563
0.0872618
7.69928
0.0996792
7.76207
0.0928548
7.77998
0.0928982
7.78161
0.123267
7.68128
0.0897582
7.78847
0.0979057
7.15832
8.93219
0.118299
8.79234
0.0437637
7.24222
-0.0488251
7.89414
-0.00704499
7.65096
-0.0209078
7.78918
-0.0280907
7.77013
-0.0306043
7.76591
-0.025248
7.74575
-0.0210271
7.74107
-0.0108191
7.71381
0.00933647
7.68566
0.0238933
7.7007
0.027385
7.76482
0.0246107
7.77166
0.0289283
7.75628
0.0449878
7.6888
0.049376
7.74128
0.062953
7.68575
0.0733747
7.7516
0.0627509
7.79062
0.0477672
7.79663
0.0860501
7.64298
-0.0142249
7.88877
-0.0202809
7.16431
8.90923
0.304479
8.48782
0.1362
7.41049
-0.00438087
8.03523
0.028484
7.61746
-0.0100154
7.82759
-0.041688
7.80181
-0.0667362
7.79069
-0.0821214
7.75993
-0.0960173
7.75709
-0.108508
7.72603
-0.108211
7.68472
-0.114236
7.70749
-0.126529
7.77721
-0.147323
7.79247
-0.159542
7.76853
-0.162825
7.69217
-0.182772
7.76128
-0.190965
7.69403
-0.200015
7.76074
-0.23459
7.82523
-0.267707
7.82981
-0.288193
7.66344
-0.355238
7.95602
-0.657899
7.46695
8.25097
0.87336
7.61442
0.521971
7.76187
0.414492
8.14265
0.339114
7.69261
0.279026
7.88742
0.227393
7.85357
0.186615
7.83127
0.156454
7.78872
0.129268
7.78608
0.102071
7.75311
0.0851802
7.7013
0.0672355
7.72598
0.0412587
7.80329
0.00640471
7.82736
-0.0188511
7.79388
-0.0416306
7.71506
-0.0724198
7.79214
-0.0972468
7.71896
-0.121327
7.78483
-0.170858
7.8748
-0.233052
7.89209
-0.283049
7.71344
-0.407985
8.08125
-0.693969
7.75286
7.56
0.593641
7.02075
0.410002
7.9455
0.240584
8.31168
0.195905
7.73685
0.142908
7.94003
0.102787
7.89401
0.0794152
7.85471
0.0692088
7.79758
0.0666604
7.79015
0.0643944
7.75535
0.0700293
7.69562
0.0774618
7.71845
0.0815441
7.79929
0.0771
7.83189
0.0782586
7.79283
0.0742303
7.71921
0.0710357
7.79545
0.069468
7.72069
0.062626
7.79185
0.025434
7.91214
-0.0312071
7.94891
-0.0498722
7.73229
-0.22071
8.25258
-0.372893
7.90534
7.19109
-3.03847
10.0597
-3.37178
8.27846
-2.75219
7.69131
-2.60992
7.59419
-2.29497
7.62595
-1.9913
7.5912
-1.7032
7.56609
-1.40586
7.49868
-1.09735
7.48323
-0.791905
7.44982
-0.503516
7.40759
-0.208128
7.42214
0.101814
7.4893
0.409161
7.52468
0.703545
7.4986
0.972562
7.45035
1.28358
7.48459
1.56088
7.4436
1.89676
7.45613
2.20458
7.60447
2.50572
7.64801
2.63426
7.60391
3.21432
7.67301
2.94018
8.1803
10.1321
-4.23022
14.2906
-4.33621
8.38316
-4.10989
7.4632
-3.78131
7.26625
-3.34707
7.19372
-2.90069
7.14485
-2.43032
7.0945
-1.96583
7.03298
-1.48887
7.0069
-1.02359
6.98398
-0.579628
6.96414
-0.122524
6.96354
0.348987
7.0175
0.82877
7.04504
1.28226
7.0453
1.70401
7.02882
2.16276
7.02608
2.60574
7.00093
3.06033
7.00182
3.58685
7.07825
4.06699
7.16821
4.38965
7.28149
4.57383
7.48923
4.52251
8.23268
14.6533
-2.6969
16.9883
-4.88855
10.5708
-4.91034
7.48159
-4.19269
6.5521
-3.79183
6.79681
-3.32657
6.67852
-2.81274
6.57818
-2.29183
6.51095
-1.76151
6.47624
-1.25126
6.47311
-0.756936
6.47024
-0.254832
6.45983
0.26679
6.49537
0.792266
6.51981
1.30906
6.52884
1.78637
6.552
2.27441
6.53849
2.76653
6.50933
3.25916
6.50967
3.76781
6.57013
4.2622
6.67456
5.04461
6.49973
4.81759
7.71665
2.73165
10.3189
17.3847
2.36278
14.6266
0.466778
12.4596
-4.84674
12.792
-3.84035
5.5508
-3.99405
6.95692
-3.50382
6.1874
-2.97668
6.04906
-2.47276
6.00647
-1.94459
5.94742
-1.40548
5.93338
-0.866861
5.93056
-0.333554
5.92572
0.222753
5.9388
0.785319
5.95784
1.33895
5.97585
1.88321
6.00861
2.39615
6.02659
2.86282
6.04393
3.34644
6.02721
3.87056
6.04706
3.78876
6.75682
4.89907
5.39011
-0.325205
12.9417
-2.3739
12.3672
15.0114
2.4706
12.158
3.33044
11.5948
3.63744
12.479
-0.685927
9.88183
-4.25777
10.5404
-3.6077
5.54515
-3.20892
5.64875
-2.74526
5.54466
-2.19895
5.40286
-1.64417
5.37948
-1.0859
5.37279
-0.544308
5.38625
0.0176536
5.37886
0.592376
5.38581
1.16508
5.40578
1.73834
5.43816
2.28169
5.48608
2.71679
5.61167
2.99586
5.74852
3.57386
5.47419
-0.29109
10.626
-4.57781
9.67988
-3.93728
12.3028
-2.93919
11.3696
12.0727
1.7327
10.4271
3.53343
9.79505
5.01483
10.9925
5.44692
9.44987
4.81524
11.1857
0.665351
9.70425
-1.62544
7.94041
-1.82936
5.75616
-1.50465
5.08161
-1.07804
4.9553
-0.593006
4.89045
-0.0931396
4.88982
0.419432
4.8696
0.941717
4.86691
1.46637
4.88392
1.94563
4.96206
2.32296
5.112
2.16656
5.77259
-0.253082
8.17037
-4.26975
9.4935
-4.65877
11.0219
-4.15377
9.17727
-2.65446
10.8052
-1.23614
9.95173
10.8379
0.776515
9.65417
1.73961
8.8354
3.0756
9.65841
3.58656
8.94729
3.08432
11.7073
1.81819
10.9898
0.440616
9.33853
-0.0551438
6.28497
-0.0625086
5.12364
0.00632649
4.92464
0.0693475
4.86961
0.118107
4.88872
0.176724
4.86121
0.245428
4.84916
0.320569
4.85062
0.373077
4.94945
0.369121
5.15258
0.0107683
6.16256
-1.30366
9.50518
-2.41982
10.6201
-2.75038
11.3713
-2.3541
8.79065
-1.353
9.81114
-0.389375
8.99152
10.45
1.7421
7.91726
2.33003
8.25551
2.80462
9.20215
2.40035
9.3628
2.89428
11.2297
3.19287
10.7148
2.21256
10.3278
1.11931
7.39358
0.738047
5.5229
0.491164
5.19368
0.298147
5.08067
0.0868556
5.10287
-0.109876
5.05955
-0.306058
5.04845
-0.549896
5.10662
-0.867694
5.29016
-1.47685
5.78417
-2.84339
7.54465
-3.58358
10.2594
-3.05847
10.1089
-2.77191
11.1044
-3.25278
9.2821
-2.86938
9.43935
-2.34827
8.47739
8.1072
2.11758
5.80968
2.70623
7.68297
2.10402
9.82892
1.40395
10.083
1.7081
10.9461
1.96077
10.4675
2.72817
9.55315
2.54371
7.57568
1.81543
6.23851
1.20342
5.78406
0.602737
5.6587
0.0234209
5.65864
-0.569015
5.63002
-1.20939
5.66609
-1.88528
5.75515
-2.61154
5.98256
-3.32518
6.4777
-3.56214
7.76924
-2.79692
9.49124
-2.98748
10.3081
-2.61518
10.7563
-3.44318
10.1314
-3.78501
9.80851
-2.69098
7.40011
5.42442
3.2528
2.56495
5.61694
5.33085
6.49976
8.96484
6.38559
10.2113
6.27504
11.0643
5.77999
10.9587
5.05101
10.2554
3.85023
8.74231
2.7074
7.34569
1.89022
6.56141
1.17197
6.33887
0.512959
6.28611
-0.163024
6.26963
-0.814244
6.27975
-1.46408
6.37184
-2.14612
6.62696
-3.10049
7.39041
-4.07148
8.70463
-4.74405
10.1367
-5.26588
10.8212
-5.40472
10.9012
-5.54634
10.2845
-5.03641
9.31575
-2.90459
5.28007
2.52856
1.4228
1.14669
3.56721
3.2002
4.83567
7.71513
5.45462
9.59937
5.95108
10.5656
5.92854
10.9706
5.20825
10.9516
4.04171
9.88278
2.85612
8.51399
1.85671
7.55203
1.02026
7.16955
0.22932
7.07311
-0.54612
7.03927
-1.33044
7.05769
-2.14815
7.18337
-3.12498
7.59678
-4.31085
8.5591
-5.51975
9.8888
-6.30966
10.9004
-6.39695
10.8927
-6.04138
10.5394
-5.45335
9.70198
-3.67571
7.5609
-1.4181
3.03974
1.11508
0.0132663
1.13786
0.0103401
3.2144
1.3208
6.4168
2.56381
8.35835
3.34726
9.77453
3.65204
10.6523
3.53055
11.0556
2.95874
10.438
2.19304
9.272
1.45058
8.29431
0.761368
7.86075
0.0994015
7.73787
-0.572942
7.71398
-1.24416
7.73098
-1.95608
7.89688
-2.73891
8.381
-3.54651
9.36043
-4.14094
10.4683
-4.2606
11.0002
-3.8919
10.5066
-3.02238
9.66
-1.61613
8.2974
-0.190438
6.14965
-0.0853025
2.94405
1.03401
-0.746041
1.88831
-0.976055
3.45259
-0.118036
5.56058
0.736298
7.50454
1.54354
8.95756
2.00222
10.1824
2.14552
10.9014
1.9842
10.591
1.59019
9.6627
1.11318
8.77345
0.647998
8.3302
0.169621
8.22018
-0.303202
8.19023
-0.786972
8.21839
-1.25661
8.3704
-1.72606
8.85387
-2.10044
9.73379
-2.21877
10.5809
-2.02724
10.7983
-1.53748
10.0038
-0.687545
8.79922
0.194944
7.41323
1.00098
5.34696
0.704968
3.24988
1.74196
-0.685939
2.58191
-1.37727
4.1493
-1.31758
5.50043
-0.660814
6.84502
0.0618044
8.22651
0.470514
9.76625
0.817525
10.5492
0.982093
10.423
0.9386
9.70496
0.752662
8.96104
0.49459
8.59279
0.237025
8.48207
-0.0373348
8.46815
-0.292797
8.47772
-0.540791
8.6226
-0.700709
9.01658
-0.694349
9.72882
-0.486309
10.3722
-0.129751
10.4371
0.329946
9.53934
1.0018
8.1158
1.63244
6.77825
1.59827
5.37725
0.707128
4.14487
2.45254
-0.648623
3.23919
-1.69408
5.19711
-1.95125
5.75579
-1.77953
6.66938
-1.45241
7.89276
-0.889466
9.20186
-0.400189
10.0592
-0.0740161
10.0964
0.080891
9.54941
0.103818
8.93979
0.0704285
8.63082
-0.0157257
8.57263
-0.108941
8.56548
-0.199549
8.57255
-0.234924
8.66193
-0.213332
8.99702
-0.0640244
9.57964
0.271181
10.0406
0.775744
9.93397
1.31209
9.00222
1.68723
7.7351
1.88153
6.57647
1.59866
5.65569
0.624963
5.11813
3.08158
-0.442118
3.68861
-1.35565
6.11206
-1.84176
6.24063
-1.92757
6.75185
-1.75028
7.71104
-1.31993
8.77294
-0.846272
9.58608
-0.452794
9.70334
-0.192603
9.28895
-0.06878
8.81671
-0.0414228
8.60751
-0.0346731
8.57065
-0.0394532
8.57498
-0.0290103
8.56672
-0.000749664
8.63781
0.131381
8.86581
0.404875
9.30662
0.8205
9.62808
1.30673
9.44873
1.71403
8.59614
1.90446
7.54113
1.8113
6.66386
1.28709
6.17563
0.484701
5.91353
3.57181
-0.46579
4.15437
-1.24988
6.89368
-1.7962
6.78644
-2.06269
7.01555
-1.97677
7.6236
-1.61338
8.41351
-1.17588
9.14962
-0.747024
9.27489
-0.425338
8.96655
-0.22879
8.62095
-0.0827354
8.46469
0.0222362
8.46974
0.129216
8.47292
0.234837
8.46583
0.392057
8.48431
0.613574
8.64584
0.951324
8.9677
1.3815
9.20087
1.79973
9.03434
2.14071
8.25725
2.22497
7.4566
1.94468
6.93919
1.43884
6.67675
0.628777
6.71947
4.20318
-0.655519
4.79612
-1.43546
7.67196
-1.90086
7.25291
-2.27632
7.38913
-2.27343
7.62145
-2.04706
8.18979
-1.64832
8.75144
-1.19512
8.82258
-0.823636
8.59434
-0.556975
8.35443
-0.382659
8.29275
-0.208469
8.29946
-0.0478917
8.31686
0.128889
8.29354
0.313077
8.30316
0.575529
8.38424
0.938345
8.60541
1.37844
8.7626
1.7732
8.63905
2.00338
8.02904
2.03475
7.42496
1.71821
7.25243
1.27666
7.11687
0.476645
7.51923
4.67557
-0.507157
5.29615
-1.19567
8.36364
-1.65871
7.7148
-1.97774
7.70672
-2.05075
7.69473
-1.85393
7.99658
-1.50084
8.39905
-1.10407
8.42484
-0.761761
8.25101
-0.501293
8.09441
-0.258544
8.0515
-0.0547723
8.09862
0.154028
8.11184
0.358982
8.09201
0.607688
8.05679
0.890442
8.10234
1.24661
8.24805
1.64193
8.36901
1.97218
8.31132
2.14069
7.86043
2.08031
7.48477
1.75135
7.57721
1.25619
7.60848
0.547703
8.2314
5.21988
-0.466553
5.76763
-1.16979
9.06879
-1.64422
8.18784
-1.8247
7.88846
-1.94732
7.81918
-1.86154
7.91291
-1.55096
8.08817
-1.15801
8.03212
-0.802129
7.89457
-0.495691
7.78789
-0.252368
7.80917
-0.00399569
7.85273
0.230927
7.87963
0.483474
7.84227
0.72411
7.81747
1.02778
7.79883
1.39094
7.88471
1.79103
7.9693
2.10321
7.9987
2.17158
7.79237
2.03975
7.61762
1.87837
7.73858
1.39084
8.09415
0.590163
9.02877
5.80845
-0.704509
6.47906
-1.32792
9.68828
-1.88623
8.74423
-2.05721
8.05847
-2.17024
7.93295
-2.09146
7.83569
-1.81003
7.80666
-1.45868
7.67891
-1.11957
7.55493
-0.83609
7.50477
-0.548389
7.52214
-0.28954
7.59543
-0.0184206
7.61033
0.244181
7.58142
0.544788
7.5177
0.843381
7.50011
1.17142
7.556
1.50319
7.63717
1.77335
7.7291
1.8686
7.69485
1.76328
7.72194
1.61471
7.88673
1.09318
8.61697
0.318424
9.8054
6.13037
-0.439084
6.92534
-1.15219
10.3956
-1.69192
9.28178
-1.79775
8.16397
-1.79995
7.93658
-1.74752
7.78417
-1.5357
7.59368
-1.22554
7.36798
-0.91362
7.2435
-0.603711
7.19465
-0.340092
7.25902
-0.0571331
7.31371
0.212041
7.34222
0.494809
7.29989
0.754644
7.25823
1.05849
7.19637
1.38321
7.22977
1.70633
7.31344
1.90914
7.5266
1.91866
7.6853
1.8912
7.74908
1.80475
7.9738
1.16334
9.25918
0.538776
10.4359
6.67596
-0.171611
7.10263
-0.732666
10.9526
-1.53702
10.0856
-1.62373
8.25041
-1.65245
7.96576
-1.56929
7.70077
-1.35546
7.37897
-1.12064
7.1322
-0.854405
6.97691
-0.607597
6.94782
-0.32412
6.97594
-0.062883
7.05306
0.211486
7.06844
0.466924
7.04516
0.753687
6.97139
1.01414
6.93561
1.27655
6.96771
1.50424
7.08284
1.72431
7.306
1.80613
7.60186
1.77673
7.77688
1.78472
7.96634
1.06664
9.97932
0.426916
11.0764
7.10526
-0.431422
7.53821
-0.892071
11.4098
-1.759
10.9531
-1.77585
8.26635
-1.75813
7.9488
-1.66904
7.61176
-1.49702
7.20581
-1.2479
6.88151
-1.00722
6.73633
-0.72931
6.66969
-0.488195
6.7349
-0.21435
6.77969
0.0482532
6.80617
0.327151
6.76676
0.572409
6.72644
0.841179
6.66669
1.09342
6.71429
1.33653
6.83939
1.49327
7.14878
1.55777
7.53729
1.54707
7.78868
1.43403
8.07795
0.607198
10.8047
0.263727
11.4208
7.37163
-0.0904536
7.62674
-0.4673
11.7826
-1.10616
11.593
-1.50584
8.66636
-1.53262
7.97661
-1.4051
7.4832
-1.21701
7.01633
-1.00849
6.67203
-0.777599
6.50491
-0.577562
6.46956
-0.312443
6.47016
-0.0642522
6.5318
0.203322
6.53892
0.448476
6.52199
0.716471
6.4582
0.933394
6.44962
1.14968
6.49804
1.35672
6.62897
1.54814
6.95795
1.66695
7.41701
1.63845
7.81748
1.31609
8.40135
0.622428
11.4989
0.382738
11.6555
7.75683
0.0200904
7.59794
-0.0879399
11.8891
-0.785944
12.2902
-1.41011
9.29039
-1.33251
7.89948
-1.26093
7.41059
-1.11002
6.86403
-0.933382
6.4937
-0.745588
6.31659
-0.501734
6.22578
-0.303373
6.27181
-0.06385
6.29263
0.163707
6.31173
0.405583
6.28046
0.601825
6.26198
0.828693
6.22252
1.03065
6.29616
1.20453
6.45395
1.34703
6.81414
1.4212
7.34318
1.59989
7.64227
0.861505
9.13982
0.242977
12.1171
0.188676
11.7067
7.94606
-0.318382
7.90992
-0.349106
11.9178
-0.739196
12.68
-1.43822
9.99007
-1.42468
7.88711
-1.33726
7.32187
-1.15118
6.67701
-0.977729
6.31868
-0.794399
6.13294
-0.635648
6.06754
-0.403935
6.04079
-0.193454
6.08269
0.0401529
6.07866
0.253064
6.06803
0.490029
6.02509
0.659412
6.05335
0.830908
6.12414
1.00316
6.28203
1.18542
6.63233
1.24619
7.28141
1.17772
7.71261
0.339848
9.97893
-0.0843171
12.5428
-0.00634544
11.6268
7.94497
-0.160124
8.06739
0.0336094
11.7235
-0.233189
12.9473
-1.04132
10.7978
-1.17516
8.02022
-1.09698
7.24333
-0.981244
6.56075
-0.81117
6.14754
-0.646171
5.96797
-0.434124
5.85606
-0.260548
5.86762
-0.0436274
5.8664
0.158926
5.87674
0.375811
5.8517
0.542968
5.85829
0.745348
5.85129
0.919903
5.95001
1.08095
6.11666
1.18413
6.52869
1.32978
7.1348
1.15072
7.89377
0.345529
10.7855
0.124785
12.7599
0.189093
11.5593
8.13402
0.00380457
8.06653
0.150755
11.5775
0.228689
12.8698
-0.50221
11.5268
-1.10985
8.62861
-0.96771
7.10062
-0.863193
6.45524
-0.728251
6.0114
-0.56407
5.80387
-0.42979
5.72262
-0.232742
5.67142
-0.0573737
5.69178
0.140927
5.67932
0.311634
5.68186
0.509323
5.66126
0.647848
5.71322
0.794857
5.80255
0.941935
5.97174
1.06796
6.40232
1.25745
6.94922
0.624084
8.53056
-0.0700863
11.4815
-0.07439
12.7601
0.0223177
11.4579
8.14908
-0.220727
8.29199
-0.200827
11.5594
0.0150143
12.6551
-0.413322
11.9522
-1.01753
9.23137
-0.997358
7.07999
-0.916667
6.3748
-0.795938
5.89118
-0.664648
5.6734
-0.473978
5.5331
-0.327107
5.5255
-0.142087
5.50768
0.023988
5.51423
0.208224
5.49862
0.349675
5.52058
0.535199
5.52873
0.680153
5.65764
0.775534
5.87379
0.803429
6.37569
0.775123
6.97106
0.00521038
9.30042
-0.452035
11.941
-0.130426
12.4375
-0.0754367
11.3987
8.07135
-0.0600621
8.3581
0.0233929
11.4776
0.414777
12.2629
0.139474
12.2244
-0.639227
10.0092
-0.906794
7.34741
-0.705769
6.17437
-0.630338
5.81511
-0.489787
5.5333
-0.370904
5.41533
-0.195395
5.35087
-0.0407305
5.35399
0.135104
5.33955
0.285918
5.34893
0.466221
5.34138
0.586253
5.40902
0.709817
5.53415
0.812022
5.77031
1.03706
6.15075
0.75261
7.25512
-0.0615158
10.1125
-0.19777
12.0739
0.156894
12.0763
0.141716
11.4105
8.21209
0.0553053
8.30827
0.113493
11.4212
0.403911
11.9713
0.560808
12.065
-0.0924309
10.6596
-0.616723
7.87182
-0.612081
6.17023
-0.547284
5.75132
-0.464043
5.45102
-0.308404
5.26098
-0.186603
5.2302
-0.0335176
5.20198
0.105931
5.20123
0.262671
5.19336
0.37936
5.22563
0.540122
5.24966
0.633715
5.44114
0.716999
5.69028
0.735202
6.13374
0.234705
7.75534
-0.439172
10.7864
-0.257782
11.8931
0.022155
11.7951
0.0317452
11.4004
8.25096
-0.10483
8.41724
-0.0829601
11.3999
0.139416
11.747
0.487294
11.715
-0.0042865
11.1483
-0.574504
8.44169
-0.684203
6.28008
-0.575531
5.64311
-0.478183
5.35442
-0.390867
5.17494
-0.250008
5.09045
-0.121852
5.07485
0.0231328
5.05733
0.15277
5.06481
0.300096
5.07946
0.38305
5.16732
0.459016
5.3657
0.572065
5.57346
0.357001
6.3486
-0.382351
8.4965
-0.773779
11.1785
-0.370539
11.4909
-0.188742
11.6083
-0.135998
11.348
8.12809
0.0342393
8.38674
0.0764976
11.3567
0.251085
11.571
0.629872
11.3347
0.619917
11.1567
-0.0791504
9.14113
-0.471615
6.67275
-0.467649
5.63938
-0.379106
5.26684
-0.255923
5.05312
-0.156112
4.99165
-0.025244
4.94494
0.0976767
4.93541
0.228411
4.93513
0.324671
4.98396
0.457791
5.03493
0.558669
5.26588
0.539107
5.59535
0.135595
6.75076
-0.544575
9.1733
-0.427962
11.0631
-0.0969581
11.167
0.0670543
11.4483
0.113098
11.2992
8.2533
0.161428
8.22853
0.281124
11.2367
0.400838
11.4497
0.63683
11.0989
0.888026
10.9031
0.249222
9.77863
-0.202264
7.12379
-0.338752
5.77587
-0.279731
5.20836
-0.225903
5.00036
-0.129767
4.89653
-0.0261524
4.84225
0.0930118
4.81715
0.194909
4.83408
0.29702
4.88292
0.352197
4.98149
0.436144
5.18214
0.299107
5.73106
-0.198858
7.24982
-0.824795
9.79687
-0.457449
10.6949
-0.225718
10.9404
-0.118946
11.3439
-0.038862
11.2257
8.23333
-0.0283358
8.25919
0.0553991
11.1515
0.139556
11.3642
0.385957
10.8497
0.817737
10.469
0.634205
9.96093
-0.0385904
7.79626
-0.363159
6.10094
-0.337935
5.18394
-0.254648
4.91789
-0.176945
4.81968
-0.0828003
4.7489
0.0136809
4.72155
0.107696
4.74106
0.178067
4.81343
0.245788
4.9138
0.252412
5.17684
-0.107539
6.09205
-0.892384
8.03496
-0.954699
9.85749
-0.576531
10.3167
-0.333678
10.6983
-0.278527
11.2897
-0.122335
11.0771
8.12061
0.100873
8.15977
0.290726
10.9605
0.349952
11.3042
0.519472
10.6789
0.808805
10.1761
0.951353
9.8166
0.32958
8.41798
-0.0833914
6.51359
-0.191781
5.29216
-0.162854
4.88981
-0.0913673
4.74926
-0.0169884
4.67544
0.0681537
4.63734
0.144195
4.6659
0.221441
4.73738
0.254799
4.88224
0.111561
5.32012
-0.390972
6.59639
-0.921277
8.56442
-0.679519
9.61366
-0.399297
10.0359
-0.220321
10.5282
-0.163003
11.2338
-0.0147995
10.9331
8.10835
0.150086
8.01049
0.376504
10.733
0.445487
11.2334
0.574583
10.5475
0.807482
9.94039
1.22072
9.40118
0.927078
8.70974
0.166357
7.27408
-0.0806192
5.54041
-0.0969294
4.90724
-0.0481261
4.70141
0.00536222
4.62299
0.056463
4.58744
0.120769
4.60284
0.169918
4.68923
0.152497
4.90014
-0.113188
5.58651
-0.852777
7.33772
-1.06055
8.76889
-0.688981
9.24123
-0.436181
9.78557
-0.298674
10.388
-0.239487
11.1742
-0.0531669
10.7462
8.05053
0.0317765
7.9786
0.231606
10.532
0.339981
11.1252
0.410004
10.4785
0.607164
9.74034
0.895728
9.10996
0.95056
8.6549
0.541011
7.6814
0.0250329
6.05593
-0.115715
5.04886
-0.0851794
4.67184
-0.0437166
4.58267
-0.00790182
4.55283
0.0348572
4.56132
0.0464613
4.6789
-0.105394
5.05367
-0.736549
6.2197
-1.14822
7.74554
-0.991096
8.60842
-0.738708
8.98804
-0.569121
9.61486
-0.515152
10.336
-0.393769
11.0488
-0.150287
10.4949
7.89164
0.0651666
7.91269
0.308761
10.288
0.461361
10.9708
0.552176
10.3868
0.688135
9.60287
0.880187
8.91622
1.23424
8.29786
0.922951
7.99126
0.262854
6.71603
0.0312848
5.2815
-0.000390791
4.70471
0.010903
4.57263
0.0166757
4.54826
0.029887
4.54957
-0.0277323
4.73751
-0.292275
5.31964
-0.853198
6.78445
-1.15061
8.03792
-0.804973
8.25985
-0.651265
8.83099
-0.5289
9.48795
-0.436041
10.2349
-0.280338
10.8868
-0.0463479
10.2505
7.83612
0.0970615
7.81738
0.421853
9.9638
0.628975
10.7629
0.635941
10.3805
0.715057
9.52062
0.904331
8.7248
1.09595
8.10528
1.15225
7.93237
0.818676
7.04878
0.184411
5.91654
0.0526757
4.83776
0.0273228
4.59932
0.0136659
4.56317
-0.00883886
4.57358
-0.171784
4.90157
-0.822867
5.97139
-1.13527
7.09543
-1.01818
7.91763
-0.821526
8.05843
-0.647624
8.65118
-0.584245
9.41977
-0.566138
10.2129
-0.365192
10.6755
-0.0549851
9.93163
7.77937
0.00812402
-0.243513
0.00877119
-0.265714
0.00814554
-0.27593
0.00596956
-0.278247
0.00283834
-0.284343
-0.00106059
-0.286507
-0.00394522
-0.291829
-0.00659221
-0.294901
-0.0102889
-0.300858
-0.013966
-0.307719
-0.0182665
-0.321511
-0.0295325
-0.357355
-0.0764232
-0.518608
-0.310792
-1.46401
-0.541952
-1.97856
-0.541659
-2.03073
-0.536715
-1.9651
-0.52688
-1.8629
-0.50265
-1.79071
-0.472929
-1.70085
-0.44676
-1.60135
-0.419949
-1.5266
-0.386552
-1.47159
-0.34609
-1.43689
-0.298702
-1.41523
-0.244954
-1.40152
-0.18477
-1.39675
-0.118893
-1.40266
-0.0529851
-1.39812
-1.43237
0.0214323
-0.270415
0.0230804
-0.274244
0.0218395
-0.280204
0.0184609
-0.279987
0.0137075
-0.283878
0.00919511
-0.282361
0.00423961
-0.287745
-5.77683e-05
-0.289137
-0.0040596
-0.296502
-0.00893118
-0.307556
-0.0190437
-0.34188
-0.0602723
-0.479715
-0.292435
-1.04624
-0.45049
-1.96075
-0.497724
-2.11979
-0.488098
-2.04771
-0.487881
-1.93186
-0.483084
-1.82989
-0.461761
-1.75512
-0.435224
-1.66025
-0.415668
-1.55945
-0.394316
-1.48049
-0.365134
-1.42165
-0.327807
-1.38486
-0.282836
-1.36253
-0.23134
-1.34917
-0.171897
-1.34715
-0.109712
-1.35598
-0.0462683
-1.35442
-1.38095
0.00952939
-0.285565
0.00788383
-0.280287
0.00615446
-0.283004
0.00186244
-0.279604
-0.00244114
-0.28158
-0.00729521
-0.278383
-0.0115848
-0.284313
-0.0157642
-0.289222
-0.0207082
-0.303805
-0.030129
-0.339993
-0.0678377
-0.483442
-0.258091
-0.989224
-0.541053
-2.00314
-0.556669
-2.16913
-0.552847
-2.13228
-0.542235
-2.00443
-0.529516
-1.89243
-0.51054
-1.80354
-0.475215
-1.70939
-0.447992
-1.62595
-0.431808
-1.52291
-0.409497
-1.43731
-0.378277
-1.37564
-0.338637
-1.33785
-0.291798
-1.31667
-0.23875
-1.30442
-0.176537
-1.30381
-0.112718
-1.31243
-0.0487417
-1.31312
-1.33248
-0.00155306
-0.290048
-0.00353839
-0.284829
-0.00541217
-0.283671
-0.00969855
-0.275526
-0.0142982
-0.276802
-0.0188004
-0.277149
-0.0225715
-0.291856
-0.0275719
-0.315266
-0.036834
-0.36656
-0.0728791
-0.534014
-0.223455
-1.20357
-0.557907
-2.10386
-0.619717
-2.25505
-0.613452
-2.19903
-0.600773
-2.07677
-0.57627
-1.94948
-0.551514
-1.85103
-0.516748
-1.75821
-0.476855
-1.66363
-0.444619
-1.59465
-0.430222
-1.49483
-0.411895
-1.40393
-0.383986
-1.34095
-0.345367
-1.30183
-0.29747
-1.27999
-0.24355
-1.26536
-0.182686
-1.2639
-0.117906
-1.26975
-0.0550334
-1.27071
-1.28387
-0.00183994
-0.295824
-0.00514375
-0.278883
-0.0077841
-0.278445
-0.0125773
-0.269786
-0.0174702
-0.278723
-0.0219315
-0.301157
-0.0255409
-0.357574
-0.0330606
-0.452109
-0.0686212
-0.651407
-0.218267
-1.70175
-0.488637
-2.21786
-0.599494
-2.33057
-0.61001
-2.29348
-0.618922
-2.14592
-0.60104
-2.00674
-0.572875
-1.88703
-0.534997
-1.78002
-0.493814
-1.68144
-0.454532
-1.60021
-0.423187
-1.54991
-0.414402
-1.46564
-0.398947
-1.36518
-0.373602
-1.30143
-0.337857
-1.26209
-0.293368
-1.24033
-0.242522
-1.22533
-0.183143
-1.22213
-0.119379
-1.22419
-0.0592823
-1.21921
-1.23038
-0.0023636
-0.294177
-0.00665426
-0.271608
-0.010055
-0.271843
-0.0156128
-0.275307
-0.020003
-0.322067
-0.0237567
-0.431812
-0.0266007
-0.628911
-0.062639
-0.905707
-0.209669
-1.90202
-0.405859
-2.28038
-0.536433
-2.37936
-0.576175
-2.34786
-0.612881
-2.22744
-0.619819
-2.07541
-0.594848
-1.92459
-0.554973
-1.77334
-0.51382
-1.6659
-0.47585
-1.58591
-0.43822
-1.51676
-0.405135
-1.48305
-0.399668
-1.42357
-0.387531
-1.31198
-0.364504
-1.2516
-0.33035
-1.21415
-0.287826
-1.19311
-0.238822
-1.17958
-0.182152
-1.17253
-0.121521
-1.17171
-0.0585242
-1.16681
-1.17234
-0.00292403
-0.28847
-0.00885519
-0.266042
-0.0138973
-0.27991
-0.0224143
-0.336791
-0.0279842
-0.516952
-0.0424664
-0.838467
-0.0688746
-1.61168
-0.139642
-1.88696
-0.312296
-2.28912
-0.441864
-2.37424
-0.529636
-2.33298
-0.585955
-2.27479
-0.616977
-2.14339
-0.609784
-1.96928
-0.572841
-1.76776
-0.537895
-1.62904
-0.501547
-1.5445
-0.466256
-1.4781
-0.430344
-1.42068
-0.396898
-1.3966
-0.391044
-1.3629
-0.380136
-1.2553
-0.358269
-1.19424
-0.325765
-1.15865
-0.284586
-1.13895
-0.235915
-1.1275
-0.180377
-1.11851
-0.121362
-1.11577
-0.0606429
-1.11038
-1.1149
-0.00455497
-0.30185
-0.0141486
-0.295434
-0.02634
-0.358852
-0.0502315
-0.581624
-0.0932611
-1.13592
-0.118695
-1.67405
-0.124084
-1.92771
-0.195378
-2.14095
-0.338868
-2.30276
-0.456263
-2.29055
-0.534071
-2.23602
-0.596959
-2.17138
-0.60809
-2.01624
-0.583928
-1.78133
-0.554254
-1.59644
-0.527954
-1.48906
-0.49523
-1.41825
-0.462895
-1.36316
-0.42794
-1.31616
-0.393959
-1.30057
-0.38393
-1.28627
-0.379315
-1.1954
-0.356889
-1.13152
-0.32496
-1.09923
-0.28396
-1.08132
-0.235929
-1.07131
-0.180323
-1.06289
-0.120706
-1.05963
-0.0595616
-1.05408
-1.05605
-0.00169078
-0.492422
-0.0260823
-0.540759
-0.0731162
-0.685569
-0.205909
-1.18889
-0.186822
-1.70701
-0.163499
-1.96632
-0.156044
-2.07098
-0.231799
-2.20813
-0.355114
-2.23555
-0.466219
-2.1703
-0.541477
-2.12087
-0.586774
-2.01609
-0.577775
-1.80361
-0.558729
-1.58957
-0.54128
-1.43192
-0.519839
-1.33908
-0.490762
-1.27967
-0.461167
-1.23511
-0.427421
-1.20015
-0.394241
-1.19555
-0.378211
-1.19646
-0.378405
-1.12983
-0.356225
-1.06472
-0.32482
-1.0369
-0.2838
-1.02164
-0.235954
-1.01323
-0.180794
-1.00684
-0.121219
-1.00379
-0.060758
-0.99769
-0.99913
0.0372436
-1.72419
-0.04713
-2.20254
-0.264538
-1.61384
-0.297616
-1.96859
-0.222259
-2.0953
-0.172775
-2.13661
-0.170127
-2.16321
-0.24532
-2.19861
-0.378711
-2.11778
-0.453275
-2.01203
-0.526114
-1.91821
-0.550669
-1.77856
-0.541012
-1.59109
-0.53591
-1.39824
-0.529836
-1.25815
-0.5113
-1.17714
-0.485627
-1.12804
-0.458701
-1.09472
-0.427357
-1.07518
-0.396402
-1.08253
-0.372878
-1.09546
-0.375263
-1.05704
-0.354735
-0.995448
-0.323812
-0.973084
-0.282688
-0.961216
-0.234848
-0.954809
-0.180889
-0.950871
-0.121076
-0.950187
-0.0605938
-0.94371
-0.945307
0.124962
-3.57255
-0.07714
-3.9226
-0.286725
-3.42247
-0.245846
-2.44426
-0.190218
-2.30309
-0.154097
-2.22841
-0.168345
-2.17404
-0.274738
-2.09642
-0.346802
-1.96316
-0.428329
-1.81349
-0.489135
-1.69725
-0.503953
-1.54744
-0.500688
-1.37162
-0.508611
-1.19506
-0.5156
-1.07674
-0.502235
-1.0113
-0.48011
-0.970635
-0.456374
-0.949168
-0.428321
-0.947116
-0.399199
-0.9647
-0.368765
-0.98887
-0.371122
-0.976674
-0.352565
-0.925104
-0.322017
-0.90906
-0.280954
-0.901641
-0.23364
-0.898422
-0.180178
-0.897495
-0.120809
-0.899896
-0.0608867
-0.894102
-0.896995
0.14402
-3.99909
-0.119914
-4.0445
-0.220378
-3.79494
-0.19325
-2.77346
-0.153851
-2.44283
-0.128438
-2.24758
-0.153624
-2.10434
-0.234736
-1.96502
-0.312353
-1.77664
-0.393125
-1.61622
-0.441623
-1.46789
-0.450068
-1.30359
-0.456777
-1.14574
-0.47975
-0.991463
-0.498575
-0.898137
-0.494598
-0.846998
-0.475731
-0.817223
-0.455049
-0.806992
-0.430796
-0.820013
-0.401916
-0.84646
-0.366761
-0.881725
-0.367083
-0.891011
-0.349783
-0.854432
-0.319311
-0.846211
-0.278356
-0.844542
-0.231815
-0.845737
-0.178783
-0.848613
-0.120388
-0.854092
-0.0608675
-0.849724
-0.853948
0.0708922
-3.93733
-0.126341
-3.73062
-0.117231
-3.65313
-0.123734
-3.27691
-0.117164
-2.52733
-0.102059
-2.1705
-0.116893
-1.94239
-0.190015
-1.73273
-0.264994
-1.56758
-0.34497
-1.39345
-0.385947
-1.23622
-0.392581
-1.06468
-0.412255
-0.93113
-0.453244
-0.793062
-0.483509
-0.733403
-0.487622
-0.690481
-0.474295
-0.674032
-0.455525
-0.673875
-0.432934
-0.697817
-0.406166
-0.732405
-0.368048
-0.776821
-0.364519
-0.803253
-0.347377
-0.784777
-0.316568
-0.785361
-0.275662
-0.790609
-0.230076
-0.797044
-0.177209
-0.803313
-0.119799
-0.811159
-0.0604176
-0.808837
-0.813645
-0.0142903
-3.66235
-0.0933122
-3.37714
-0.0336617
-3.21963
-0.0467914
-3.13348
-0.0644563
-2.45963
-0.0670655
-1.95252
-0.0857527
-1.66689
-0.137245
-1.45093
-0.206848
-1.31146
-0.282082
-1.16118
-0.327369
-1.01725
-0.337388
-0.851938
-0.370547
-0.740363
-0.429267
-0.618907
-0.471253
-0.58834
-0.482097
-0.548583
-0.475574
-0.544079
-0.457223
-0.554047
-0.43852
-0.584392
-0.41181
-0.625592
-0.372678
-0.676382
-0.363926
-0.716769
-0.345673
-0.718267
-0.314468
-0.72698
-0.273642
-0.739456
-0.228299
-0.750958
-0.17572
-0.759889
-0.119174
-0.769454
-0.0597393
-0.770071
-0.774534
-0.082772
-3.24587
-0.0628008
-2.84628
0.0234835