/*--------------------------------*- C++ -*----------------------------------*\
| =========                 |                                                 |
| \\      /  F ield         | OpenFOAM: The Open Source CFD Toolbox           |
|  \\    /   O peration     | Version:  2112                                  |
|   \\  /    A nd           | Website:  www.openfoam.com                      |
|    \\/     M anipulation  |                                                 |
\*---------------------------------------------------------------------------*/
FoamFile
{
    version     2.0;
    format      ascii;
    arch        "LSB;label=32;scalar=64";
    class       surfaceScalarField;
    location    "0.00356";
    object      phi;
}
// * * * * * * * * * * * * * * * * * * * * * * * * * * * * * * * * * * * * * //

dimensions      [1 0 -1 0 0 0 0];

oriented        oriented;

internalField   nonuniform List<scalar> 
27436
(
-0.533368
8.19273
-0.0931924
7.47158
-0.083346
7.78615
-0.069362
7.78653
-0.0694913
7.79291
-0.0543923
7.782
-0.0403389
7.78277
-0.0295524
7.78524
-0.020927
7.78833
-0.0134537
7.78956
-0.0070573
7.79027
0.000455783
7.78966
0.0139243
7.78343
0.0312981
7.78051
0.0466412
7.78222
0.0539126
7.78935
0.0547238
7.79411
0.0629512
7.78815
0.074655
7.78428
0.094267
7.77799
0.0962916
7.79103
0.111532
7.78578
0.12406
7.7824
0.574394
7.46276
8.21861
-0.247242
8.43997
-0.0963346
7.32067
-0.081877
7.77169
-0.0567509
7.76138
-0.0553713
7.79152
-0.0473083
7.77393
-0.0380426
7.77348
-0.0400466
7.78713
-0.0212432
7.76812
-0.0104896
7.77652
2.89006e-05
7.77998
0.015191
7.77437
0.0151551
7.78351
0.0213369
7.77449
0.0208587
7.7827
0.0388509
7.77125
0.05124
7.78173
0.0718911
7.7674
0.067924
7.78814
0.0752439
7.77056
0.0721356
7.79418
0.10289
7.755
0.114471
7.77103
0.267712
7.30936
8.47918
-0.227275
8.66725
-0.141222
7.23461
-0.120723
7.75118
-0.107573
7.74825
-0.0981451
7.78212
-0.0935175
7.76927
-0.0908925
7.77069
-0.0890209
7.78529
-0.066191
7.75338
-0.0515905
7.76766
-0.035909
7.76659
-0.0161037
7.75663
-0.0129408
7.78004
-0.0112136
7.77274
-0.00686979
7.77833
0.0151251
7.74897
0.0279656
7.76886
0.0513168
7.74402
0.0539935
7.78544
0.0536155
7.77089
0.0618936
7.78589
0.0782807
7.7386
0.100568
7.74911
0.192535
7.21515
8.66836
-0.169657
8.83691
-0.139571
7.20453
-0.134308
7.74592
-0.112085
7.72601
-0.104534
7.7746
-0.099328
7.76401
-0.096362
7.76756
-0.0840669
7.77302
-0.064892
7.73795
-0.0485382
7.75378
-0.0260498
7.74896
-0.00652589
7.74206
0.00252432
7.77079
0.00526589
7.76993
0.0148091
7.76877
0.0396178
7.72417
0.0540287
7.75442
0.0763851
7.72183
0.0871464
7.77472
0.0867307
7.77132
0.0915762
7.78101
0.117932
7.71235
0.11106
7.7561
0.162128
7.16325
8.83535
-0.0737034
8.91061
-0.0365082
7.16735
-0.0914324
7.80085
-0.0584325
7.69303
-0.0592836
7.77547
-0.0593312
7.76398
-0.0600939
7.76813
-0.0499182
7.76271
-0.0333101
7.72538
-0.0180855
7.74088
0.00172466
7.73082
0.0191707
7.72791
0.0269453
7.76283
0.0273461
7.76934
0.0353102
7.76077
0.0590139
7.70058
0.0684114
7.74499
0.0878298
7.70246
0.0979809
7.76468
0.0929418
7.7764
0.0930316
7.78089
0.123357
7.68209
0.0893308
7.79025
0.0965303
7.15666
8.93856
0.11817
8.79245
0.0437572
7.24178
-0.0487819
7.8934
-0.00732604
7.65156
-0.021522
7.7897
-0.029256
7.77166
-0.0344299
7.77313
-0.0291352
7.75687
-0.0166109
7.71416
-0.0053768
7.73127
0.00962932
7.71387
0.0227573
7.71555
0.0274881
7.75775
0.0238282
7.77257
0.0284221
7.7561
0.0471534
7.68185
0.0517808
7.74035
0.064601
7.68956
0.071817
7.75759
0.0622873
7.786
0.0475494
7.7956
0.08615
7.64348
-0.0146135
7.89098
-0.0210035
7.16325
8.92055
0.304393
8.48806
0.13618
7.41002
-0.00426812
8.03439
0.0283551
7.6185
-0.0109512
7.82902
-0.0435813
7.80428
-0.0706546
7.80003
-0.0843229
7.76975
-0.0917138
7.72128
-0.101199
7.74211
-0.106208
7.71783
-0.114658
7.72377
-0.125861
7.76854
-0.149014
7.79524
-0.162238
7.76916
-0.160657
7.68022
-0.181239
7.76091
-0.19082
7.69911
-0.203031
7.76996
-0.236081
7.81912
-0.268072
7.82754
-0.288172
7.66361
-0.354849
7.95745
-0.658569
7.46706
8.26246
0.873381
7.61469
0.521862
7.76158
0.414454
8.14187
0.338695
7.69424
0.277782
7.89
0.225165
7.85705
0.182205
7.84269
0.15409
7.79663
0.130607
7.7428
0.108627
7.76622
0.0881883
7.74115
0.0668563
7.74551
0.0407938
7.7941
0.00572634
7.82985
-0.0188148
7.79355
-0.0385423
7.69992
-0.0682813
7.79063
-0.0951952
7.72598
-0.122933
7.79779
-0.172372
7.86865
-0.233262
7.88839
-0.283066
7.71343
-0.407293
8.08143
-0.694346
7.75419
7.56515
0.594061
7.02072
0.410081
7.94565
0.240731
8.31122
0.195789
7.73947
0.141997
7.94409
0.101992
7.89727
0.0766279
7.86759
0.0680709
7.80393
0.0690731
7.73971
0.0723104
7.76626
0.0750068
7.7432
0.0778188
7.74293
0.0795888
7.79138
0.0758249
7.83308
0.0776397
7.79147
0.076082
7.7015
0.0726167
7.79412
0.066519
7.73207
0.05904
7.80543
0.0229839
7.90482
-0.0315632
7.94288
-0.0494993
7.73128
-0.220236
8.25176
-0.372809
7.9065
7.18813
-3.03654
10.0576
-3.37298
8.28207
-2.75561
7.69423
-2.61118
7.59569
-2.30346
7.63689
-1.99674
7.5892
-1.69931
7.56847
-1.3855
7.48947
-1.10016
7.45513
-0.79601
7.46558
-0.501591
7.4518
-0.205709
7.4449
0.0994129
7.48458
0.409174
7.52279
0.706359
7.49408
0.976116
7.43186
1.29149
7.47879
1.56256
7.46106
1.90075
7.46741
2.20456
7.60125
2.50551
7.64198
2.63342
7.60339
3.21138
7.67339
2.93688
8.18017
10.1243
-4.22909
14.2878
-4.35233
8.40529
-4.12647
7.47016
-3.80246
7.27394
-3.35217
7.18719
-2.87954
7.11378
-2.3985
7.08437
-1.94561
7.03678
-1.49877
7.01078
-1.02951
6.99785
-0.577234
6.99934
-0.1202
6.98392
0.347721
7.01437
0.829805
7.04016
1.28794
7.03569
1.70699
7.01303
2.16766
7.01826
2.62087
7.00806
3.08141
7.00706
3.61216
7.07071
4.08145
7.17297
4.39615
7.28889
4.57825
7.4914
4.51915
8.23844
14.6454
-2.69041
16.9802
-4.93565
10.6515
-4.92348
7.4624
-4.18098
6.53618
-3.78178
6.78669
-3.31869
6.64554
-2.80332
6.5651
-2.29553
6.52944
-1.78362
6.50053
-1.26821
6.48092
-0.75811
6.48634
-0.253786
6.47604
0.267342
6.49075
0.799578
6.50747
1.3174
6.51762
1.79439
6.53634
2.28961
6.52327
2.79812
6.49992
3.30373
6.50192
3.80526
6.56962
4.26115
6.71773
5.03103
6.51945
4.83555
7.68718
2.71908
10.355
17.3657
2.37499
14.6078
0.608227
12.4196
-4.77908
12.8555
-3.8114
5.57248
-4.02643
6.99911
-3.54175
6.15303
-2.99422
6.01289
-2.46561
6.00037
-1.94181
5.97601
-1.41382
5.95
-0.868221
5.9378
-0.32972
5.9358
0.226201
5.93354
0.789235
5.94445
1.34024
5.9666
1.87308
6.00371
2.38768
6.00913
2.87829
6.01015
3.40657
5.97477
3.91799
6.05914
3.83826
6.7992
4.88532
5.47378
-0.417049
12.9907
-2.37541
12.3137
14.9903
2.46862
12.1429
3.29278
11.5966
3.71029
12.4409
-0.619958
9.90697
-4.344
10.7196
-3.91535
5.71695
-3.29823
5.39201
-2.8331
5.53235
-2.25702
5.39892
-1.70307
5.39573
-1.12207
5.3572
-0.558904
5.37371
0.0230027
5.35388
0.611717
5.35809
1.20076
5.37871
1.77989
5.42539
2.35149
5.43867
2.79214
5.57077
3.31433
5.45588
3.56921
5.80875
-0.294366
10.6611
-4.58433
9.76817
-3.88589
12.2943
-2.9351
11.3622
12.0551
1.7064
10.4417
3.45953
9.84835
5.07005
10.8315
5.51152
9.46599
4.84453
11.3916
1.11877
9.44457
-0.73225
7.23984
-1.36552
6.16763
-1.20639
5.24035
-0.899595
5.08917
-0.477577
4.93511
-0.0529742
4.95055
0.406573
4.89713
0.846661
4.91997
1.29358
4.93267
1.65059
5.06927
1.85777
5.23337
1.30756
6.12496
-0.70691
7.46807
-4.22706
9.33382
-4.70724
11.1485
-4.19318
9.25636
-2.54617
10.6493
-1.17015
9.99271
10.8872
0.783576
9.66314
1.6828
8.95309
2.90757
9.60938
3.57695
8.79632
3.28192
11.682
1.82653
10.9124
0.436236
8.6553
-0.219834
6.84668
-0.191731
5.23897
-0.127852
5.05204
-0.0255116
4.86141
0.0114854
4.94666
0.088804
4.85644
0.167551
4.87653
0.300662
4.83447
0.404735
4.99907
0.487094
5.18261
0.0952754
6.55265
-1.20185
8.77415
-2.36358
10.509
-2.68365
11.48
-2.1388
8.72041
-1.27372
9.78704
-0.391028
9.10264
10.5024
1.62821
8.04174
2.24278
8.34817
2.35895
9.50645
1.53628
9.62572
0.399678
12.8296
0.199838
11.1165
0.777266
8.07499
0.755514
6.8687
0.51216
5.48341
0.371732
5.19383
0.190368
5.04657
0.0916726
5.04759
-0.0463154
4.99623
-0.176464
5.0082
-0.388732
5.04795
-0.598085
5.2081
-0.968204
5.55306
-1.21528
6.80175
-0.581215
8.14047
-0.856997
10.7768
-2.16885
12.8087
-2.87006
9.42825
-2.64719
9.58714
-2.2101
8.69769
8.28658
1.78339
6.26836
1.802
8.34249
1.02062
10.2965
0.220843
10.4352
1.63139
11.4391
2.48648
10.2594
2.33761
8.20539
2.17388
7.01893
1.48819
6.15813
0.911775
5.76002
0.376128
5.57341
-0.102662
5.51764
-0.579584
5.46467
-1.07559
5.49585
-1.6141
5.57833
-2.17846
5.76445
-2.80118
6.16686
-3.01284
7.00214
-3.18562
8.29864
-2.50062
10.0778
-0.982576
11.2995
-2.39734
10.8557
-3.14696
10.3242
-2.5037
8.02318
5.8169
3.30216
2.9734
5.42458
6.23089
6.02069
9.71306
6.05833
10.4022
6.53402
10.9637
6.09297
10.6952
5.03163
9.2598
4.04359
8.00375
3.10838
7.09049
2.26971
6.59377
1.47054
6.36633
0.695831
6.28592
-0.0875503
6.24201
-0.86003
6.26229
-1.64699
6.36024
-2.45428
6.56862
-3.34073
7.05258
-4.29324
7.9551
-5.26662
9.27192
-5.75848
10.5744
-5.39658
10.9469
-5.03847
10.5191
-4.77121
10.1457
-2.90194
6.24933
2.90051
1.52697
1.45023
3.92967
3.83585
4.95268
8.70014
5.61625
9.74226
6.26806
10.3122
6.22801
10.7313
5.28226
10.201
4.10058
9.18418
2.99675
8.19356
2.04026
7.54851
1.17333
7.23065
0.319527
7.13711
-0.532619
7.09169
-1.39702
7.1242
-2.27839
7.23989
-3.26195
7.55177
-4.42698
8.21891
-5.70964
9.24065
-6.71082
10.2768
-6.7681
10.6401
-6.08242
10.2767
-5.36397
9.79822
-4.10095
8.86541
-1.51061
3.65497
1.41312
0.0589984
1.39503
-0.0935903
3.99609
1.5676
7.04504
2.8836
8.42979
3.77096
9.42509
4.06141
10.4395
3.66898
10.5906
2.97367
9.87886
2.22408
8.94283
1.51106
8.26113
0.811148
7.92996
0.125239
7.82224
-0.576606
7.79286
-1.27365
7.82032
-1.99795
7.96385
-2.76548
8.31912
-3.58998
9.04331
-4.34511
9.99675
-4.6848
10.6194
-4.2904
10.2518
-3.34265
9.33735
-1.90544
8.36394
-0.0358162
6.98119
-0.112919
3.7079
1.32601
-0.91197
2.30795
-0.975607
4.06464
0.19446
5.87993
1.13203
7.49438
1.89125
8.66621
2.23509
10.0954
2.22801
10.5949
1.97074
10.1337
1.56045
9.35152
1.10393
8.71731
0.646087
8.38778
0.164674
8.30365
-0.313789
8.27135
-0.801065
8.30753
-1.26435
8.42703
-1.72096
8.77485
-2.12555
9.44559
-2.34957
10.2188
-2.30643
10.5764
-1.91832
9.86602
-1.06845
8.49202
-0.120318
7.41899
1.07623
5.7774
0.941236
3.82055
2.26705
-0.853825
3.16639
-1.24876
4.4641
-0.909467
5.54236
-0.285691
6.8735
0.305364
8.07701
0.618162
9.78597
0.871284
10.3404
0.977919
10.0247
0.911484
9.41611
0.723841
8.90477
0.473627
8.63819
0.22254
8.55474
-0.0482835
8.54227
-0.293958
8.55315
-0.529636
8.66279
-0.697537
8.9417
-0.719732
9.46464
-0.558097
10.0536
-0.273169
10.2909
-0.015288
9.60748
0.61597
7.86034
1.26959
6.76703
1.49532
5.555
0.906073
4.39549
3.16373
-0.71639
3.88652
-1.47661
5.2276
-1.71863
5.78771
-1.5224
6.6797
-1.24636
7.80326
-0.796256
9.33852
-0.358615
9.89973
-0.0712507
9.73346
0.0548485
9.28858
0.0830951
8.876
0.051793
8.6695
-0.0346518
8.64104
-0.121487
8.62906
-0.210138
8.64195
-0.242374
8.69516
-0.208569
8.90696
-0.080508
9.33388
0.206673
9.76209
0.685316
9.81191
1.17101
9.1226
1.43402
7.59494
1.66528
6.53744
1.43826
5.78056
0.654689
5.17092
3.82219
-0.414015
4.30932
-1.17391
5.99175
-1.69419
6.30954
-1.78296
6.77105
-1.64706
7.66994
-1.24399
8.93816
-0.783237
9.43683
-0.436424
9.38505
-0.208027
9.05912
-0.0961177
8.76342
-0.0681638
8.64147
-0.0521291
8.62457
-0.051817
8.62859
-0.0317457
8.62183
-0.00305903
8.66649
0.117856
8.78549
0.369308
9.08062
0.754487
9.37347
1.2351
9.33082
1.65252
8.70706
1.7525
7.49284
1.67324
6.61539
1.11913
6.33376
0.351014
5.93652
4.17952
-0.279188
4.59676
-1.12993
6.84465
-1.76063
6.94089
-1.9697
6.98093
-1.92684
7.62848
-1.55604
8.56827
-1.1122
8.99122
-0.721553
8.9934
-0.443442
8.77975
-0.251594
8.57113
-0.0992955
8.48905
0.0107467
8.5141
0.118304
8.52092
0.227185
8.51299
0.388354
8.50552
0.597752
8.57548
0.900665
8.77633
1.30969
8.96136
1.75027
8.88902
2.10618
8.35368
2.13493
7.46447
1.91469
6.83384
1.30491
6.94294
0.370527
6.86575
4.54803
-0.406269
5.00545
-1.43992
7.87129
-1.87159
7.37203
-2.22908
7.33935
-2.2505
7.65162
-1.98208
8.30124
-1.56711
8.57676
-1.15921
8.58491
-0.820044
8.43974
-0.57626
8.32715
-0.404055
8.31679
-0.225133
8.33476
-0.0568871
8.35237
0.127825
8.32815
0.314674
8.31874
0.556146
8.33343
0.899487
8.43189
1.31345
8.54555
1.71148
8.48908
1.97932
8.08747
1.97911
7.46479
1.6633
7.14824
1.23015
7.37755
0.255816
7.84983
4.80035
-0.422403
5.42734
-1.19117
8.64237
-1.63507
7.8185
-1.96113
7.66647
-2.02759
7.71915
-1.79474
8.06931
-1.43886
8.22026
-1.07234
8.21804
-0.766152
8.13324
-0.51225
8.0734
-0.268558
8.07293
-0.0647681
8.13077
0.145955
8.14138
0.351809
8.12215
0.60012
8.07046
0.874033
8.05909
1.19771
8.10765
1.57554
8.16612
1.92338
8.13935
2.10985
7.90129
2.03073
7.54589
1.68358
7.49383
1.24895
7.81361
0.492219
8.60997
5.28887
-0.537846
5.95887
-1.13907
9.24346
-1.59757
8.27768
-1.79445
7.86321
-1.93385
7.8599
-1.80312
7.93951
-1.48336
7.90165
-1.12676
7.86171
-0.790389
7.79718
-0.502325
7.78527
-0.264185
7.83454
-0.0122254
7.87855
0.226063
7.90295
0.482403
7.86564
0.722374
7.83045
1.00705
7.77411
1.3523
7.76191
1.72207
7.79575
2.03411
7.8255
2.14275
7.79332
1.98201
7.70637
1.80771
7.6683
1.39509
8.22712
0.767552
9.23849
6.05302
-0.874548
6.82366
-1.36625
9.73328
-1.84772
8.76114
-2.01526
8.03258
-2.12873
7.97468
-2.02073
7.83336
-1.7468
7.62801
-1.42049
7.53613
-1.11606
7.49322
-0.840026
7.50919
-0.551123
7.54543
-0.294689
7.62208
-0.0233186
7.63152
0.2393
7.60314
0.53695
7.53284
0.829522
7.48148
1.13108
7.46047
1.44643
7.48081
1.71028
7.56073
1.79357
7.70968
1.71296
7.78961
1.52924
7.85072
1.10905
8.64912
0.577231
9.77048
6.62778
-0.587177
7.41035
-1.24548
10.3913
-1.63048
9.14909
-1.77221
8.17609
-1.77094
7.97414
-1.68796
7.75135
-1.46883
7.41057
-1.19657
7.26522
-0.897543
7.19426
-0.602854
7.21414
-0.344838
7.28707
-0.0597186
7.33701
0.210661
7.36129
0.49392
7.32001
0.751824
7.27495
1.04028
7.1928
1.34671
7.15387
1.62782
7.20007
1.83176
7.35649
1.89214
7.64934
1.87736
7.8043
1.68936
8.03917
1.39069
8.94435
0.787482
10.3702
7.423
-0.259006
7.67081
-0.754792
10.8868
-1.50137
9.89444
-1.59352
8.26799
-1.61367
7.99455
-1.51488
7.65352
-1.31246
7.20853
-1.08538
7.03862
-0.847363
6.9564
-0.604135
6.97102
-0.320059
7.00323
-0.0625066
7.07963
0.210616
7.08833
0.462349
7.06848
0.746844
6.99068
1.00108
6.93864
1.23627
6.91879
1.45524
6.98205
1.66388
7.14856
1.75809
7.55632
1.74137
7.82201
1.75408
8.02748
1.02385
9.67648
0.507436
10.8825
7.93962
-0.48797
8.16768
-0.924611
11.322
-1.74578
10.7147
-1.74875
8.27073
-1.73578
7.98226
-1.61807
7.53678
-1.4499
7.04189
-1.23331
6.82255
-0.991442
6.71477
-0.725655
6.7051
-0.488212
6.76557
-0.213041
6.80466
0.0484899
6.82696
0.327473
6.78959
0.56936
6.74854
0.826491
6.68113
1.07298
6.67177
1.28737
6.76787
1.43753
6.99823
1.53643
7.4579
1.5309
7.82717
1.44588
8.11333
0.583558
10.5402
0.2151
11.2481
8.15904
-0.111419
8.28925
-0.485793
11.6946
-1.19215
11.4159
-1.47882
8.55677
-1.49425
7.99807
-1.35288
7.39563
-1.17859
6.86806
-0.982807
6.62753
-0.779302
6.51139
-0.57342
6.49952
-0.305989
6.4986
-0.0615052
6.56029
0.204964
6.56047
0.447409
6.54715
0.712328
6.48365
0.927327
6.4658
1.11666
6.48181
1.31184
6.57321
1.48927
6.82197
1.61371
7.33544
1.61561
7.8262
1.40946
8.32089
0.595217
11.3577
0.250188
11.5895
8.40898
0.0395994
8.25645
-0.116579
11.8478
-0.80063
12.0954
-1.38653
9.14086
-1.30295
7.91451
-1.22518
7.31899
-1.07229
6.71542
-0.913634
6.46952
-0.728239
6.32618
-0.497546
6.26883
-0.301386
6.30231
-0.0600114
6.31888
0.165861
6.33451
0.407828
6.30498
0.603566
6.28742
0.818204
6.25084
1.01083
6.28856
1.16326
6.42074
1.30803
6.67766
1.39679
7.24868
1.5844
7.64144
0.827771
9.07831
0.24092
11.9407
-0.0103382
11.8375
8.39636
-0.259152
8.51483
-0.360832
11.9475
-0.742847
12.472
-1.40075
9.79829
-1.37606
7.89047
-1.28993
7.23404
-1.12137
6.54717
-0.952814
6.30155
-0.779434
6.1525
-0.62712
6.1167
-0.394846
6.07033
-0.190117
6.11404
0.0420635
6.1021
0.251134
6.09576
0.484264
6.05403
0.64917
6.08543
0.806515
6.13067
0.97225
6.2548
1.13114
6.51816
1.18254
7.19854
1.13891
7.68871
0.385364
9.83429
-0.0765878
12.4004
-0.108094
11.8668
8.28682
-0.0911247
8.60893
0.0249171
11.8309
-0.258946
12.7487
-1.00618
10.5427
-1.14834
8.0335
-1.06642
7.15391
-0.953107
6.43307
-0.798351
6.14664
-0.635276
5.98941
-0.423376
5.9045
-0.256268
5.9032
-0.0398673
5.89757
0.158675
5.90345
0.376174
5.87809
0.537184
5.89283
0.731731
5.89084
0.906439
5.95545
1.04878
6.11293
1.15995
6.40998
1.32246
7.03854
1.13517
7.88006
0.383968
10.5872
0.150658
12.6314
0.21782
11.7987
8.5072
0.0440873
8.57309
0.161261
11.7109
0.219921
12.6867
-0.491919
11.2505
-1.06163
8.60415
-0.914231
7.00747
-0.829085
6.34675
-0.708797
6.02677
-0.552627
5.83281
-0.423834
5.77596
-0.225312
5.70476
-0.0533251
5.72565
0.143901
5.70619
0.309094
5.71287
0.506905
5.69477
0.642216
5.75547
0.778689
5.81884
0.913073
5.97752
1.00358
6.31893
1.18314
6.86172
0.598808
8.46766
-0.0717011
11.2623
-0.0564003
12.6132
0.0448864
11.7008
8.55608
-0.197556
8.77985
-0.173848
11.6838
0.0115564
12.4974
-0.410351
11.6681
-0.976477
9.1707
-1.0141
7.04567
-0.88554
6.21708
-0.783569
5.92424
-0.656694
5.70578
-0.467697
5.58717
-0.324502
5.56164
-0.138274
5.53961
0.0258451
5.54218
0.20891
5.52999
0.345985
5.55787
0.523187
5.57836
0.663768
5.67836
0.742326
5.89995
0.8292
6.23189
0.735048
6.95827
0.00796417
9.19668
-0.457778
11.7306
-0.12277
12.275
-0.0265745
11.6073
8.53425
-0.045004
8.83424
0.0460752
11.5915
0.435754
12.104
0.134345
11.9667
-0.608415
9.91195
-0.83501
7.27177
-0.674023
6.05485
-0.612487
5.86303
-0.478754
5.57189
-0.363981
5.47271
-0.187794
5.38569
-0.0369074
5.38903
0.137081
5.36842
0.283736
5.38363
0.46174
5.37987
0.578548
5.46163
0.692956
5.56374
0.77355
5.82012
0.959043
6.04492
0.698197
7.22154
-0.0691925
9.96585
-0.221852
11.8836
0.155303
11.8949
0.183185
11.5797
8.72147
0.0719483
8.76991
0.142885
11.5212
0.424665
11.8184
0.501472
11.8884
-0.0748328
10.4855
-0.557608
7.75424
-0.604459
6.10047
-0.531643
5.79018
-0.455436
5.49558
-0.300365
5.31779
-0.182379
5.26803
-0.0298642
5.23697
0.10732
5.2315
0.264275
5.22701
0.37833
5.26597
0.531099
5.30906
0.613454
5.48145
0.729205
5.70484
0.684567
6.08842
0.221715
7.68631
-0.404624
10.5936
-0.278076
11.7549
0.0109416
11.6016
0.0620523
11.5254
8.78397
-0.109868
8.88299
-0.0594207
11.4719
0.163638
11.5933
0.471251
11.5786
0.0157298
10.9385
-0.510915
8.28071
-0.653707
6.24278
-0.562744
5.6989
-0.468766
5.40211
-0.385824
5.2352
-0.243075
5.12557
-0.119165
5.11348
0.0238927
5.08882
0.149088
5.10224
0.293203
5.12193
0.369751
5.2323
0.445833
5.40501
0.536853
5.61441
0.290067
6.33388
-0.422702
8.39968
-0.775093
10.9464
-0.384642
11.359
-0.210297
11.4217
-0.141087
11.4516
8.64094
0.0390552
8.84106
0.1021
11.4107
0.270738
11.4222
0.653851
11.1921
0.619115
10.9701
-0.022169
8.92324
-0.444459
6.66493
-0.44197
5.69616
-0.365587
5.32666
-0.24614
5.11601
-0.153163
5.03344
-0.0221257
4.98279
0.0981188
4.96876
0.227302
4.97338
0.320736
5.02853
0.444413
5.10888
0.54049
5.30933
0.503325
5.65225
0.0895762
6.74738
-0.515369
9.00567
-0.422173
10.8531
-0.115167
11.0478
0.0468318
11.2543
0.106613
11.3882
8.74576
0.17348
8.66404
0.294702
11.291
0.416986
11.2982
0.639766
10.9676
0.878077
10.7286
0.279935
9.51929
-0.168246
7.11343
-0.316194
5.84413
-0.263555
5.27545
-0.216622
5.0693
-0.121292
4.93831
-0.022991
4.88496
0.0930856
4.85301
0.190569
4.87628
0.29019
4.92869
0.345397
5.05327
0.406691
5.24798
0.236283
5.82335
-0.251298
7.2338
-0.828736
9.58107
-0.461671
10.4837
-0.242412
10.8242
-0.150964
11.1568
-0.0660793
11.3007
8.67804
-0.0197494
8.67782
0.069755
11.2009
0.157174
11.207
0.396918
10.7239
0.815135
10.308
0.619454
9.71296
-0.0227137
7.75663
-0.341631
6.1637
-0.324241
5.25939
-0.243844
4.98941
-0.171654
4.86673
-0.0797875
4.79338
0.0130352
4.76028
0.103025
4.78649
0.16822
4.86323
0.23699
4.98438
0.208263
5.2765
-0.142086
6.17437
-0.82654
7.91925
-0.916915
9.66767
-0.579309
10.1434
-0.35565
10.5962
-0.307762
11.105
-0.155769
11.1483
8.52318
0.112671
8.56147
0.296819
11.0176
0.363184
11.1387
0.535234
10.5516
0.820103
10.0217
0.934307
9.59754
0.431156
8.26144
-0.0443604
6.64163
-0.169191
5.38588
-0.155988
4.97659
-0.0828403
4.79386
-0.0134261
4.72422
0.0667211
4.68017
0.138095
4.7154
0.213006
4.78795
0.235636
4.96141
0.0415012
5.47055
-0.465795
6.6821
-0.922185
8.37341
-0.667284
9.41126
-0.406562
9.87983
-0.240471
10.4279
-0.193045
11.0551
-0.0398067
10.9951
8.4855
0.170636
8.3873
0.381649
10.806
0.450994
11.0663
0.583563
10.4168
0.815224
9.78943
1.18488
9.22737
0.882534
8.56498
0.190834
7.33786
-0.0453853
5.62343
-0.0815133
5.01284
-0.0394719
4.75233
0.00985569
4.67502
0.0556496
4.63421
0.113661
4.65727
0.155287
4.74566
0.117005
4.99929
-0.159332
5.74698
-0.80402
7.3276
-1.00868
8.57477
-0.678971
9.07871
-0.439358
9.6374
-0.315765
10.3015
-0.258564
10.9952
-0.0789404
10.8158
8.40917
0.0416861
8.34422
0.242614
10.6087
0.349914
10.9588
0.423774
10.3433
0.613077
9.59868
0.870708
8.96971
0.944454
8.49269
0.588935
7.69284
0.0560687
6.15838
-0.0983213
5.16798
-0.0758393
4.72987
-0.0405449
4.63959
-0.0106301
4.60406
0.0255522
4.62099
0.0261172
4.74467
-0.147349
5.17304
-0.795634
6.39551
-1.15272
7.68282
-0.96763
8.38628
-0.729287
8.83837
-0.577154
9.48322
-0.528852
10.2525
-0.413539
10.8783
-0.177416
10.5796
8.23379
0.0802071
8.26278
0.317559
10.3757
0.463403
10.8125
0.557267
10.2491
0.687541
9.46791
0.850634
8.80597
1.18044
8.16331
0.922967
7.95008
0.303049
6.78151
0.0505508
5.42096
0.0101678
4.77079
0.0152717
4.63444
0.0146088
4.60435
0.0212863
4.61431
-0.0508659
4.8161
-0.347557
5.46888
-0.808086
6.85656
-1.11152
7.98405
-0.790965
8.063
-0.644248
8.6892
-0.532123
9.36861
-0.443733
10.1617
-0.299695
10.7312
-0.0591624
10.3389
8.17618
0.110716
8.15237
0.440366
10.0537
0.630331
10.6261
0.639665
10.2416
0.712207
9.39519
0.887009
8.63098
1.0669
7.98301
1.16173
7.85426
0.854326
7.0896
0.209253
6.06691
0.0653944
4.91521
0.0315098
4.66818
0.0111076
4.62418
-0.0202152
4.64527
-0.197081
4.99194
-0.864544
6.13614
-1.13753
7.1288
-0.967565
7.81258
-0.806716
7.89981
-0.650861
8.53218
-0.599795
9.31602
-0.570581
10.1312
-0.375882
10.5336
-0.061347
10.0243
8.11506
0.00666313
-0.138852
0.00353949
-0.142621
-0.00214152
-0.147045
-0.00276934
-0.142973
-0.00200767
-0.158941
-0.00196052
-0.171097
-0.00270089
-0.186954
-0.00629627
-0.196377
-0.0104606
-0.201807
-0.0140852
-0.209266
-0.0157193
-0.22011
-0.0151042
-0.233134
-0.0134237
-0.249046
-0.0116721
-0.268693
-0.00920537
-0.287736
-0.00224231
-0.309835
0.0131152
-0.34362
0.0360543
-0.398544
0.0632532
-0.46101
0.0931345
-0.524638
0.125851
-0.590728
0.161167
-0.655367
0.203491
-0.721483
0.250301
-0.787105
0.302682
-0.81882
0.361745
-0.901348
0.406048
-0.999659
0.316167
-1.18193
0.0644039
-2.53734
-3.52015
0.0129389
-0.150325
0.00909153
-0.142241
0.00367177
-0.148268
0.0026094
-0.147716
0.0031189
-0.16625
0.00350598
-0.175704
0.00329281
-0.191834
-0.000123962
-0.203426
-0.00438599
-0.213545
-0.00906212
-0.223949
-0.0114772
-0.226023
-0.0120473
-0.237657
-0.0125303
-0.253263
-0.013295
-0.272027
-0.0130825
-0.288379
-0.00888392
-0.312125
0.00253913
-0.343375
0.0224305
-0.383294
0.0485868
-0.454327
0.0779662
-0.516273
0.110826
-0.576583
0.148317
-0.636145
0.190663
-0.695806
0.242089
-0.724997
0.296125
-0.795967
0.34038
-0.886064
0.311347
-1.04358
0.212729
-1.57465
0.0328326
-3.33198
-3.67924
0.00698511
-0.153504
-2.39077e-05
-0.144179
-0.00669937
-0.150082
-0.00906033
-0.15334
-0.00959508
-0.166857
-0.00936356
-0.174102
-0.00974704
-0.190164
-0.0119675
-0.204317
-0.0148553
-0.217839
-0.0177757
-0.228151
-0.0212593
-0.234299
-0.0223457
-0.246105
-0.02311
-0.261624
-0.0237265
-0.278518
-0.023818
-0.296313
-0.0231522
-0.318323
-0.0155467
-0.346064
0.00230223
-0.381484
0.0274831
-0.430391
0.0578844
-0.50337
0.0922315
-0.559937
0.131634
-0.61601
0.176393
-0.671549
0.226709
-0.70183
0.277679
-0.781023
0.305257
-0.898999
0.198149
-1.18941
0.0815935
-2.9637
-0.0628962
-3.30907
-3.54133
-0.000586873
-0.153272
-0.00848374
-0.150943
-0.0154786
-0.155705
-0.0179789
-0.155182
-0.0196352
-0.165529
-0.0202469
-0.171502
-0.0213642
-0.1875
-0.0239096
-0.203929
-0.0256733
-0.220681
-0.0280983
-0.233428
-0.0305744
-0.244598
-0.0329518
-0.256747
-0.0345327
-0.271293
-0.0358603
-0.288358
-0.0367845
-0.305925
-0.0379159
-0.325774
-0.0333659
-0.348347
-0.0195082
-0.378778
0.00581369
-0.41762
0.0369238
-0.486986
0.0731319
-0.540797
0.114597
-0.594444
0.161736
-0.633549
0.211327
-0.688445
0.254416
-0.774225
0.204589
-0.970123
0.0496166
-1.67496
-0.131436
-3.22541
-0.0971257
-3.13517
-3.40763
-0.00191538
-0.159016
-0.0111878
-0.158145
-0.0181521
-0.161569
-0.0213052
-0.155842
-0.0240622
-0.165318
-0.0258159
-0.171552
-0.0273727
-0.188621
-0.0297914
-0.205421
-0.0313182
-0.224128
-0.0332057
-0.239604
-0.0350185
-0.254546
-0.0383605
-0.268292
-0.0414563
-0.283536
-0.0440088
-0.29953
-0.0452172
-0.316044
-0.0472507
-0.333443
-0.0441496
-0.351343
-0.03249
-0.376952
-0.00885265
-0.409856
0.0228196
-0.468489
0.0596795
-0.520446
0.102301
-0.57229
0.148072
-0.598154
0.192071
-0.673539
0.182975
-0.796511
0.0561805
-1.19547
-0.239926
-2.93676
-0.283326
-3.079
-0.123662
-3.06408
-3.25851
-0.00331945
-0.166096
-0.0129287
-0.163848
-0.0200059
-0.164062
-0.0239712
-0.156648
-0.0281278
-0.165888
-0.0310817
-0.172507
-0.0333902
-0.189773
-0.0357751
-0.207825
-0.0367288
-0.228624
-0.0382611
-0.247622
-0.0390119
-0.265275
-0.0424135
-0.281157
-0.0462778
-0.297179
-0.0499474
-0.311529
-0.052063
-0.326141
-0.0557865
-0.340624
-0.0540356
-0.354047
-0.0435859
-0.375263
-0.0217883
-0.404358
0.0108164
-0.445595
0.048219
-0.501647
0.091703
-0.54988
0.134224
-0.59107
0.163256
-0.674279
0.0791095
-0.889299
-0.243143
-2.38032
-0.431473
-2.98113
-0.339642
-2.98178
-0.126046
-2.95683
-3.00613
-0.00549695
-0.170666
-0.0148702
-0.166806
-0.0220331
-0.166072
-0.0273621
-0.157836
-0.0331719
-0.167622
-0.037374
-0.174567
-0.0403959
-0.19274
-0.0426055
-0.212276
-0.043447
-0.23494
-0.0438856
-0.256741
-0.0453486
-0.277446
-0.0477675
-0.29381
-0.0511844
-0.30953
-0.0549433
-0.320588
-0.0590266
-0.334546
-0.0601807
-0.347187
-0.0621251
-0.359171
-0.0542254
-0.374403
-0.0341111
-0.398047
-0.000126848
-0.433911
0.0369648
-0.486172
0.0791257
-0.509815
0.113253
-0.58582
0.0827839
-0.714432
-0.128005
-1.21066
-0.511201
-2.78237
-0.538034
-2.81484
-0.327542
-2.90489
-0.114804
-2.81024
-2.80274
-0.00789652
-0.175275
-0.0172762
-0.166703
-0.0252097
-0.166466
-0.0318892
-0.159266
-0.0392103
-0.170394
-0.0447908
-0.179058
-0.0487703
-0.198522
-0.05144
-0.2192
-0.0518437
-0.24192
-0.0524281
-0.266111
-0.0527479
-0.288983
-0.0538036
-0.305383
-0.0567805
-0.320149
-0.0615663
-0.330155
-0.0652027
-0.339599
-0.0665221
-0.351849
-0.0684772
-0.363374
-0.0626042
-0.375298
-0.0452545
-0.398551
-0.0139893
-0.427199
0.0254462
-0.47369
0.0621495
-0.510923
0.0727016
-0.600264
-0.0658264
-0.845748
-0.566159
-2.40095
-0.690369
-2.75628
-0.54472
-2.74589
-0.313199
-2.7944
-0.105243
-2.65839
-2.70925
-0.0103398
-0.175033
-0.0196166
-0.163572
-0.0289411
-0.165016
-0.0371497
-0.160223
-0.045868
-0.172929
-0.0529896
-0.184447
-0.0580489
-0.20485
-0.0606405
-0.225516
-0.0612341
-0.249335
-0.0608834
-0.273855
-0.0604783
-0.296724
-0.0601857
-0.3135
-0.0622621
-0.326883
-0.0653625
-0.336829
-0.0702562
-0.341431
-0.0735312
-0.353671
-0.0730556
-0.366932
-0.0694326
-0.37812
-0.0554667
-0.393025
-0.0265796
-0.420645
0.0118543
-0.454646
0.0356229
-0.518608
-0.0331923
-0.654552
-0.472317
-1.2396
-0.748434
-2.6193
-0.74438
-2.62687
-0.529954
-2.66204
-0.298869
-2.66993
-0.103402
-2.53624
-2.64616
-0.012157
-0.174796
-0.0224267
-0.156773
-0.0331911
-0.160576
-0.0432091
-0.159024
-0.0530713
-0.1736
-0.061359
-0.187559
-0.0669664
-0.207752
-0.0699077
-0.227864
-0.0706022
-0.252172
-0.0690056
-0.275773
-0.0674307
-0.297177
-0.0663775
-0.314752
-0.0673582
-0.327302
-0.0706599
-0.338656
-0.0741953
-0.344309
-0.0766869
-0.354341
-0.0781557
-0.36602
-0.0763374
-0.378594
-0.0645743
-0.392812
-0.0382588
-0.417955
-0.00793548
-0.438817
-0.0226758
-0.542101
-0.190318
-0.818571
-0.793081
-2.26307
-0.884416
-2.54086
-0.728587
-2.57251
-0.506043
-2.55939
-0.278511
-2.55098
-0.109661
-2.46339
-2.5896
-0.0142244
-0.166447
-0.0260968
-0.146292
-0.0385042
-0.152271
-0.0501801
-0.153893
-0.061095
-0.170084
-0.0697617
-0.184456
-0.075635
-0.205234
-0.0791912
-0.225133
-0.079425
-0.249502
-0.0768176
-0.272093
-0.0736365
-0.293708
-0.0730347
-0.312295
-0.0703988
-0.326865
-0.0735873
-0.338528
-0.0779122
-0.345399
-0.0815033
-0.352903
-0.0826711
-0.363709
-0.0825516
-0.376015
-0.071779
-0.390155
-0.0514028
-0.415898
-0.0396756
-0.457683
-0.126518
-0.600291
-0.726654
-1.26881
-0.939594
-2.44447
-0.910783
-2.44528
-0.71303
-2.50012
-0.489428
-2.45366
-0.277818
-2.45862
-0.119835
-2.41676
-2.53859
-0.0163904
-0.15274
-0.0306905
-0.131902
-0.0452639
-0.139566
-0.0585669
-0.143932
-0.0697709
-0.160369
-0.0783632
-0.176235
-0.084155
-0.199103
-0.0882124
-0.219425
-0.0874554
-0.244103
-0.0831579
-0.2664
-0.0786094
-0.288357
-0.077362
-0.307814
-0.0740554
-0.324481
-0.0773424
-0.336956
-0.0815194
-0.345401
-0.0859621
-0.349989
-0.0870131
-0.360759
-0.0862846
-0.37343
-0.0782993
-0.388213
-0.0690323
-0.387362
-0.0979239
-0.481008
-0.308426
-0.772769
-0.966308
-2.07616
-1.05178
-2.34373
-0.887151
-2.38932
-0.678407
-2.40833
-0.463658
-2.3665
-0.289263
-2.39317
-0.132999
-2.37474
-2.48541
-0.0192131
-0.134442
-0.0365593
-0.114149
-0.0537645
-0.122161
-0.0666729
-0.130552
-0.0783237
-0.148876
-0.0875812
-0.165863
-0.0926125
-0.188648
-0.0953125
-0.212713
-0.0938493
-0.236484
-0.0895106
-0.258764
-0.0842874
-0.28205
-0.0818436
-0.302831
-0.0782262
-0.320455
-0.0813843
-0.334546
-0.0868479
-0.34308
-0.0895323
-0.346884
-0.0910101
-0.356458
-0.0877715
-0.367537
-0.0852691
-0.376832
-0.0948054
-0.405182
-0.208116
-0.533308
-0.912586
-1.20207
-1.1015
-2.24195
-1.06203
-2.26277
-0.875793
-2.32375
-0.6491
-2.3098
-0.46824
-2.30315
-0.299164
-2.33827
-0.144575
-2.3316
-2.42683
-0.0220176
-0.113385
-0.0427096
-0.0938394
-0.0609821
-0.102826
-0.0746874
-0.117547
-0.0861749
-0.138895
-0.0941194
-0.155091
-0.0998922
-0.179311
-0.102032
-0.20484
-0.100364
-0.227724
-0.095664
-0.250356
-0.0898365
-0.275355
-0.0864904
-0.29754
-0.0820314
-0.316074