/*--------------------------------*- C++ -*----------------------------------*\
| =========                 |                                                 |
| \\      /  F ield         | OpenFOAM: The Open Source CFD Toolbox           |
|  \\    /   O peration     | Version:  2112                                  |
|   \\  /    A nd           | Website:  www.openfoam.com                      |
|    \\/     M anipulation  |                                                 |
\*---------------------------------------------------------------------------*/
FoamFile
{
    version     2.0;
    format      ascii;
    arch        "LSB;label=32;scalar=64";
    class       volScalarField;
    location    "0.0056";
    object      epsilon;
}
// * * * * * * * * * * * * * * * * * * * * * * * * * * * * * * * * * * * * * //

dimensions      [0 2 -3 0 0 0 0];

internalField   nonuniform List<scalar> 
13875
(
1.16003e+06
2.9463e+07
3.28261e+07
3.28413e+07
3.29125e+07
3.28474e+07
3.29029e+07
3.2909e+07
3.29065e+07
3.29301e+07
3.29148e+07
3.29027e+07
3.28705e+07
3.28438e+07
3.28618e+07
3.2908e+07
3.29451e+07
3.29187e+07
3.2895e+07
3.28587e+07
3.28984e+07
3.28308e+07
3.28028e+07
2.94714e+07
1.17833e+06
1.3139e+06
2.27477e+07
2.53571e+07
2.52401e+07
2.5284e+07
2.5223e+07
2.52358e+07
2.5239e+07
2.52243e+07
2.52333e+07
2.52223e+07
2.52428e+07
2.52117e+07
2.51942e+07
2.52016e+07
2.52481e+07
2.52439e+07
2.52392e+07
2.52279e+07
2.52289e+07
2.52694e+07
2.52201e+07
2.5327e+07
2.27497e+07
1.34283e+06
1.57304e+06
1.97066e+07
2.1831e+07
2.16281e+07
2.17e+07
2.16435e+07
2.15711e+07
2.15497e+07
2.15295e+07
2.15192e+07
2.14978e+07
2.1536e+07
2.16094e+07
2.16034e+07
2.15983e+07
2.1545e+07
2.15303e+07
2.15339e+07
2.15526e+07
2.16425e+07
2.16836e+07
2.16022e+07
2.17886e+07
1.96887e+07
1.58524e+06
1.81371e+06
1.73851e+07
1.90388e+07
1.88808e+07
1.89667e+07
1.89161e+07
1.88306e+07
1.88054e+07
1.87913e+07
1.87792e+07
1.87528e+07
1.87763e+07
1.8887e+07
1.88816e+07
1.88775e+07
1.87855e+07
1.87931e+07
1.87846e+07
1.88099e+07
1.8915e+07
1.89522e+07
1.88582e+07
1.90131e+07
1.73669e+07
1.82094e+06
2.02279e+06
1.54522e+07
1.67725e+07
1.66215e+07
1.67025e+07
1.66591e+07
1.65688e+07
1.65547e+07
1.65445e+07
1.65307e+07
1.65089e+07
1.65238e+07
1.66292e+07
1.66289e+07
1.66206e+07
1.65322e+07
1.65472e+07
1.65351e+07
1.65547e+07
1.66564e+07
1.66907e+07
1.66054e+07
1.67432e+07
1.54325e+07
2.03641e+06
2.20649e+06
1.37119e+07
1.49281e+07
1.47388e+07
1.48305e+07
1.47786e+07
1.46777e+07
1.46722e+07
1.46641e+07
1.46491e+07
1.46309e+07
1.46388e+07
1.47406e+07
1.47439e+07
1.47327e+07
1.4646e+07
1.46679e+07
1.46518e+07
1.46682e+07
1.47745e+07
1.482e+07
1.47292e+07
1.49027e+07
1.38492e+07
2.22246e+06
2.42262e+06
1.2251e+07
1.34779e+07
1.32075e+07
1.32697e+07
1.32058e+07
1.30895e+07
1.30869e+07
1.30799e+07
1.30623e+07
1.30476e+07
1.30485e+07
1.31483e+07
1.31529e+07
1.31388e+07
1.30552e+07
1.30847e+07
1.30658e+07
1.3086e+07
1.32001e+07
1.32591e+07
1.32018e+07
1.34214e+07
1.19516e+07
2.42885e+06
2.66608e+06
1.06152e+07
1.23127e+07
1.19746e+07
1.19994e+07
1.18932e+07
1.17557e+07
1.17477e+07
1.17388e+07
1.17182e+07
1.17079e+07
1.16997e+07
1.17988e+07
1.18062e+07
1.17887e+07
1.1706e+07
1.17449e+07
1.17256e+07
1.17524e+07
1.18827e+07
1.19821e+07
1.19645e+07
1.22637e+07
1.05424e+07
2.69428e+06
3.49658e+06
1.02131e+07
1.14838e+07
1.10302e+07
1.09411e+07
1.0793e+07
1.06287e+07
1.06172e+07
1.0607e+07
1.05818e+07
1.05765e+07
1.05603e+07
1.06577e+07
1.06684e+07
1.06488e+07
1.05685e+07
1.06122e+07
1.05934e+07
1.06268e+07
1.07788e+07
1.09263e+07
1.10232e+07
1.1476e+07
1.03373e+07
3.57482e+06
6.83534e+06
1.22179e+07
1.11941e+07
1.04235e+07
1.01705e+07
9.93454e+06
9.75912e+06
9.7388e+06
9.72237e+06
9.69435e+06
9.6927e+06
9.67323e+06
9.76329e+06
9.77701e+06
9.7577e+06
9.68914e+06
9.72626e+06
9.71792e+06
9.75132e+06
9.91729e+06
1.01449e+07
1.03675e+07
1.11588e+07
1.21225e+07
6.89055e+06
1.4917e+07
1.86904e+07
1.20546e+07
1.0335e+07
9.63934e+06
9.32549e+06
9.14377e+06
9.09021e+06
9.05893e+06
9.02738e+06
9.02718e+06
9.00704e+06
9.08584e+06
9.10267e+06
9.09049e+06
9.04165e+06
9.06893e+06
9.0765e+06
9.13414e+06
9.30322e+06
9.61795e+06
1.02746e+07
1.18846e+07
1.79464e+07
1.49969e+07
2.54672e+07
6.87957e+07
1.81562e+07
1.07001e+07
9.73405e+06
9.04646e+06
8.74237e+06
8.64589e+06
8.58779e+06
8.55133e+06
8.54881e+06
8.53131e+06
8.5928e+06
8.6125e+06
8.61118e+06
8.58289e+06
8.60557e+06
8.63916e+06
8.72145e+06
9.03179e+06
9.6555e+06
1.05354e+07
1.75267e+07
6.74703e+07
2.5025e+07
2.65867e+07
7.58612e+07
8.68433e+07
2.41609e+07
1.09966e+07
9.15994e+06
8.80159e+06
8.51585e+06
8.39773e+06
8.33582e+06
8.32082e+06
8.30072e+06
8.34205e+06
8.36406e+06
8.37785e+06
8.37948e+06
8.43135e+06
8.53327e+06
8.8052e+06
9.23347e+06
1.13423e+07
2.26356e+07
8.08999e+07
7.64414e+07
2.60801e+07
2.63392e+07
5.50709e+07
7.98653e+07
1.06035e+08
5.75865e+07
1.34646e+07
9.81627e+06
9.04501e+06
8.74192e+06
8.67824e+06
8.66876e+06
8.65672e+06
8.68898e+06
8.70802e+06
8.72698e+06
8.73338e+06
8.78549e+06
9.03531e+06
1.00016e+07
1.43665e+07
6.73488e+07
9.10159e+07
7.54533e+07
5.45165e+07
2.5733e+07
2.53569e+07
4.26718e+07
5.83428e+07
7.36245e+07
7.38371e+07
7.69268e+07
2.5885e+07
1.40347e+07
1.20691e+07
1.09696e+07
1.06713e+07
1.05315e+07
1.05439e+07
1.05802e+07
1.06691e+07
1.0921e+07
1.17454e+07
1.38342e+07
2.4527e+07
7.78109e+07
7.7389e+07
6.62752e+07
5.66259e+07
4.22975e+07
2.64242e+07
2.48345e+07
3.37392e+07
4.41177e+07
5.57639e+07
5.91749e+07
6.85077e+07
5.27136e+07
4.23503e+07
4.67247e+07
4.20685e+07
4.08857e+07
4.25251e+07
4.37452e+07
4.31763e+07
4.1607e+07
4.00709e+07
4.9198e+07
4.61035e+07
5.26815e+07
7.09724e+07
6.04365e+07
5.13752e+07
4.29529e+07
3.34911e+07
2.58456e+07
2.03639e+07
2.57157e+07
3.32842e+07
4.37567e+07
5.07442e+07
6.37911e+07
7.60915e+07
9.18584e+07
6.91894e+07
5.42918e+07
5.37883e+07
5.67782e+07
5.78517e+07
5.76134e+07
5.55592e+07
5.35563e+07
6.72224e+07
9.14316e+07
8.27529e+07
6.59348e+07
5.12264e+07
4.15712e+07
3.18225e+07
2.47899e+07
2.01478e+07
1.51323e+07
1.95848e+07
2.82337e+07
4.00606e+07
4.74971e+07
5.63045e+07
7.17593e+07
8.71132e+07
5.25866e+07
3.80498e+07
3.59703e+07
3.68601e+07
3.75533e+07
3.73336e+07
3.67805e+07
3.85298e+07
5.16485e+07
7.92949e+07
7.53418e+07
5.84027e+07
4.90515e+07
4.03199e+07
2.77755e+07
1.89419e+07
1.47676e+07
1.23464e+07
1.73882e+07
2.70681e+07
4.35188e+07
5.01111e+07
4.65014e+07
5.27706e+07
6.29521e+07
4.7387e+07
3.3898e+07
2.89918e+07
2.79048e+07
2.79625e+07
2.82449e+07
2.92725e+07
3.31319e+07
4.45588e+07
5.92492e+07
5.51403e+07
4.74986e+07
5.20443e+07
4.58477e+07
2.75573e+07
1.74128e+07
1.21399e+07
1.17542e+07
1.81946e+07
2.91166e+07
4.32224e+07
4.39272e+07
3.82049e+07
3.99592e+07
4.72492e+07
4.19508e+07
3.17035e+07
2.51916e+07
2.24329e+07
2.19039e+07
2.2826e+07
2.55373e+07
3.1009e+07
3.97422e+07
4.54293e+07
4.12501e+07
3.89652e+07
4.47532e+07
4.41354e+07
3.03269e+07
1.91593e+07
1.19514e+07
1.61731e+07
4.90838e+07
3.4983e+07
3.3735e+07
3.45947e+07
3.08503e+07
3.16519e+07
3.73871e+07
3.6093e+07
2.84825e+07
2.17835e+07
1.83312e+07
1.75689e+07
1.88884e+07
2.23631e+07
2.80658e+07
3.45384e+07
3.64783e+07
3.26042e+07
3.16015e+07
3.52074e+07
3.44934e+07
3.77458e+07
5.03074e+07
1.31379e+07
6.31829e+07
2.254e+08
4.33634e+07
2.66889e+07
2.76604e+07
2.52531e+07
2.59287e+07
3.05665e+07
3.06624e+07
2.4718e+07
1.85675e+07
1.51001e+07
1.42463e+07
1.56251e+07
1.90792e+07
2.42981e+07
2.94333e+07
3.01436e+07
2.677e+07
2.58774e+07
2.79826e+07
2.7353e+07
4.96073e+07
2.27095e+08
5.90647e+07
8.05628e+07
1.66874e+08
3.76418e+07
2.20607e+07
2.25004e+07
2.10687e+07
2.16023e+07
2.53651e+07
2.58502e+07
2.10281e+07
1.56709e+07
1.25124e+07
1.16533e+07
1.28817e+07
1.59701e+07
2.0503e+07
2.47782e+07
2.51264e+07
2.23042e+07
2.15402e+07
2.25743e+07
2.24448e+07
4.14631e+07
2.13134e+08
8.74696e+07
7.04987e+07
1.29872e+08
3.00705e+07
1.87247e+07
1.8612e+07
1.77274e+07
1.81137e+07
2.11596e+07
2.17263e+07
1.75906e+07
1.30215e+07
1.03587e+07
9.63213e+06
1.07011e+07
1.33446e+07
1.71831e+07
2.08756e+07
2.09922e+07
1.86817e+07
1.82128e+07
1.87388e+07
1.89897e+07
3.23891e+07
1.44818e+08
8.15152e+07
6.39763e+07
1.03209e+08
2.46105e+07
1.6313e+07
1.5707e+07
1.50465e+07
1.5422e+07
1.78054e+07
1.82936e+07
1.47885e+07
1.09135e+07
8.6711e+06
8.05975e+06
8.96584e+06
1.12173e+07
1.44701e+07
1.75927e+07
1.7656e+07
1.58313e+07
1.55062e+07
1.58917e+07
1.652e+07
2.61806e+07
1.16347e+08
7.29051e+07
5.77345e+07
9.08812e+07
2.07318e+07
1.43277e+07
1.34852e+07
1.29116e+07
1.32787e+07
1.51277e+07
1.54294e+07
1.24587e+07
9.22255e+06
7.33758e+06
6.818e+06
7.57891e+06
9.45937e+06
1.21514e+07
1.47724e+07
1.49304e+07
1.35419e+07
1.32627e+07
1.36543e+07
1.44951e+07
2.15108e+07
9.53816e+07
6.35543e+07
5.16461e+07
7.94749e+07
1.76847e+07
1.26351e+07
1.17374e+07
1.11801e+07
1.15656e+07
1.2931e+07
1.29815e+07
1.04751e+07
7.80835e+06
6.25891e+06
5.82903e+06
6.48335e+06
8.07314e+06
1.03196e+07
1.25204e+07
1.2773e+07
1.17253e+07
1.14775e+07
1.19416e+07
1.2845e+07
1.84628e+07
8.39135e+07
5.77547e+07
4.78771e+07
7.14237e+07
1.56156e+07
1.12129e+07
1.0353e+07
9.83299e+06
1.01597e+07
1.11588e+07
1.10124e+07
8.88927e+06
6.69282e+06
5.39842e+06
5.033e+06
5.59049e+06
6.91896e+06
8.77088e+06
1.06095e+07
1.09749e+07
1.02453e+07
1.00474e+07
1.05382e+07
1.13985e+07
1.6159e+07
7.48808e+07
5.23838e+07
4.50597e+07
6.5417e+07
1.40922e+07
1.00294e+07
9.21027e+06
8.76371e+06
9.01011e+06
9.69471e+06
9.40634e+06
7.61326e+06
5.78711e+06
4.69715e+06
4.38328e+06
4.85491e+06
5.95998e+06
7.493e+06
9.02986e+06
9.48094e+06
9.02525e+06
8.89682e+06
9.36885e+06
1.01863e+07
1.43776e+07
6.66455e+07
4.80474e+07
4.15175e+07
5.92956e+07
1.28651e+07
9.00737e+06
8.23608e+06
7.89174e+06
8.04495e+06
8.44008e+06
8.01551e+06
6.5026e+06
5.01346e+06
4.11173e+06
3.84975e+06
4.26503e+06
5.20421e+06
6.48369e+06
7.7746e+06
8.27042e+06
8.02593e+06
7.98503e+06
8.38285e+06
9.18006e+06
1.32281e+07
6.24043e+07
4.56597e+07
3.87191e+07
5.41975e+07
1.20211e+07
8.20276e+06
7.42077e+06
7.13634e+06
7.22991e+06
7.41675e+06
6.93036e+06
5.64543e+06
4.39639e+06
3.63199e+06
3.40617e+06
3.76368e+06
4.55257e+06
5.6261e+06
6.71652e+06
7.2433e+06
7.17911e+06
7.19234e+06
7.53378e+06
8.35446e+06
1.23545e+07
5.75335e+07
4.20804e+07
3.62459e+07
4.95659e+07
1.13691e+07
7.58888e+06
6.75687e+06
6.48431e+06
6.53017e+06
6.56687e+06
6.04684e+06
4.94096e+06
3.88886e+06
3.23357e+06
3.03655e+06
3.34639e+06
4.01366e+06
4.919e+06
5.84789e+06
6.38721e+06
6.45534e+06
6.50778e+06
6.84323e+06
7.72445e+06
1.16933e+07
5.21016e+07
3.88482e+07
3.31653e+07
4.45364e+07
1.07671e+07
7.12898e+06
6.18372e+06
5.91146e+06
5.91072e+06
5.83289e+06
5.28479e+06
4.34104e+06
3.45039e+06
2.89328e+06
2.72462e+06
2.99888e+06
3.57372e+06
4.35335e+06
5.14883e+06
5.67932e+06
5.8295e+06
5.91226e+06
6.24965e+06
7.24382e+06
1.1188e+07
4.739e+07
3.60889e+07
3.12146e+07
4.05211e+07
1.05111e+07
6.81473e+06
5.72783e+06
5.42624e+06
5.36699e+06
5.21929e+06
4.67289e+06
3.85421e+06
3.09152e+06
2.60928e+06
2.45983e+06
2.7003e+06
3.19318e+06
3.8597e+06
4.54608e+06
5.06345e+06
5.26954e+06
5.40302e+06
5.75654e+06
6.89967e+06
1.08609e+07
4.26136e+07
3.32877e+07
2.96354e+07
3.70644e+07
1.01497e+07
6.61994e+06
5.41145e+06
4.98769e+06
4.88662e+06
4.7006e+06
4.16035e+06
3.45104e+06
2.78832e+06
2.36596e+06
2.23356e+06
2.44489e+06
2.87246e+06
3.4514e+06
4.0471e+06
4.54501e+06
4.77795e+06
4.94597e+06
5.41176e+06
6.68333e+06
1.04423e+07
3.8414e+07
3.14462e+07
2.7608e+07
3.32432e+07
9.46287e+06
6.53535e+06
5.18893e+06
4.62324e+06
4.46288e+06
4.22898e+06
3.7175e+06
3.09555e+06
2.51975e+06
2.15494e+06
2.03893e+06
2.22961e+06
2.60411e+06
3.11206e+06
3.63625e+06
4.09932e+06
4.35572e+06
4.56461e+06
5.15691e+06
6.57453e+06
9.81726e+06
3.5426e+07
2.98071e+07
2.61654e+07
3.02556e+07
8.82916e+06
6.57589e+06
5.05231e+06
4.32394e+06
4.09715e+06
3.82726e+06
3.34791e+06
2.80637e+06
2.29702e+06
1.97375e+06
1.86976e+06
2.03887e+06
2.36756e+06
2.81661e+06
3.27353e+06
3.70373e+06
3.98707e+06
4.25084e+06
4.99568e+06
6.54606e+06
9.12956e+06
3.22266e+07
2.7714e+07
2.49971e+07
2.76785e+07
8.42109e+06
6.6725e+06
5.02596e+06
4.09727e+06
3.78524e+06
3.48202e+06
3.03747e+06
2.55456e+06
2.10261e+06
1.8163e+06
1.72285e+06
1.87432e+06
2.16349e+06
2.56087e+06
2.96722e+06
3.36538e+06
3.67252e+06
4.0084e+06
4.92277e+06
6.67723e+06
8.62656e+06
2.96226e+07
2.61621e+07
2.36114e+07
2.52539e+07
7.72874e+06
6.47686e+06
5.0618e+06
3.93495e+06
3.52628e+06
3.18004e+06
2.76284e+06
2.33149e+06
1.93013e+06
1.67658e+06
1.59333e+06
1.73149e+06
1.99153e+06
2.347e+06
2.70891e+06
3.07865e+06
3.41483e+06
3.83076e+06
4.95451e+06
6.61239e+06
8.17699e+06
2.72234e+07
2.49328e+07
2.25998e+07
2.32617e+07
7.11139e+06
6.15208e+06
5.25855e+06
3.83452e+06
3.32616e+06
2.93335e+06
2.53539e+06
2.1411e+06
1.78222e+06
1.55543e+06
1.4797e+06
1.6038e+06
1.83574e+06
2.15233e+06
2.485e+06
2.83576e+06
3.20969e+06
3.71656e+06
5.04527e+06
6.24623e+06
7.42873e+06
2.4931e+07
2.36744e+07
2.18274e+07
2.1596e+07
6.61379e+06
5.75472e+06
5.42047e+06
3.82778e+06
3.17477e+06
2.73675e+06
2.34446e+06
1.97792e+06
1.6526e+06
1.44805e+06
1.37837e+06
1.49087e+06
1.69948e+06
1.98684e+06
2.2962e+06
2.63964e+06
3.05643e+06
3.68679e+06
5.34765e+06
5.83974e+06
6.75243e+06
2.31738e+07
2.27008e+07
2.09869e+07
2.00775e+07
6.05427e+06
5.31154e+06
5.32501e+06
3.91535e+06
3.0628e+06
2.58239e+06
2.18183e+06
1.83305e+06
1.53618e+06
1.35249e+06
1.2891e+06
1.3932e+06
1.58295e+06
1.84676e+06
2.1435e+06
2.4967e+06
2.94569e+06
3.78285e+06
5.4056e+06
5.41691e+06
6.33295e+06
2.16985e+07
2.19412e+07
2.03931e+07
1.87709e+07
5.63615e+06
4.87759e+06
4.99552e+06
4.19086e+06
3.03377e+06
2.46588e+06
2.0579e+06
1.71436e+06
1.43595e+06
1.26777e+06
1.2086e+06
1.30465e+06
1.4776e+06
1.72668e+06
2.02382e+06
2.38398e+06
2.88993e+06
4.01659e+06
5.09114e+06
4.9601e+06
5.82536e+06
2.02885e+07
2.10475e+07
1.99257e+07
1.75887e+07
5.42883e+06
4.49476e+06
4.62952e+06
4.28939e+06
3.13078e+06
2.37997e+06
1.96269e+06
1.61974e+06
1.35175e+06
1.19377e+06
1.13798e+06
1.22727e+06
1.38888e+06
1.62806e+06
1.93259e+06
2.30112e+06
2.95196e+06
4.21721e+06
4.7161e+06
4.55555e+06
5.41637e+06
1.90175e+07
2.04425e+07
1.9347e+07
1.65341e+07
5.0532e+06
4.15138e+06
4.24679e+06
4.08996e+06
3.36164e+06
2.3486e+06
1.8846e+06
1.54702e+06
1.28143e+06
1.1297e+06
1.077e+06
1.16184e+06
1.31718e+06
1.55774e+06
1.85974e+06
2.27524e+06
3.18929e+06
4.11336e+06
4.31535e+06
4.22399e+06
5.24342e+06
1.78473e+07
1.9958e+07
1.89138e+07
1.5533e+07
4.90477e+06
3.86621e+06
3.88564e+06
3.82242e+06
3.55291e+06
2.47041e+06
1.83574e+06
1.48736e+06
1.22952e+06
1.07974e+06
1.02512e+06
1.10931e+06
1.26226e+06
1.49766e+06
1.80581e+06
2.36258e+06
3.46549e+06
3.84802e+06
3.94148e+06
3.92013e+06
4.9838e+06
1.67406e+07
1.94626e+07
1.85075e+07
1.46361e+07
4.84395e+06
3.63887e+06
3.58851e+06
3.54874e+06
3.44591e+06
2.76988e+06
1.85533e+06
1.43945e+06
1.1881e+06
1.04102e+06
985094
1.06928e+06
1.21911e+06
1.44721e+06
1.80743e+06
2.68549e+06
3.48621e+06
3.57844e+06
3.63405e+06
3.67353e+06
4.84299e+06
1.56789e+07
1.90021e+07
1.78707e+07
1.37109e+07
4.66229e+06
3.43687e+06
3.33617e+06
3.28164e+06
3.23426e+06
2.98817e+06
2.01999e+06
1.40961e+06
1.15147e+06
1.01e+06
955909
1.0378e+06
1.18269e+06
1.41902e+06
1.98763e+06
2.94442e+06
3.26166e+06
3.30957e+06
3.38003e+06
3.4892e+06
4.83381e+06
1.45856e+07
1.82914e+07
1.69444e+07
1.27311e+07
4.52057e+06
3.2641e+06
3.12143e+06
3.04601e+06
3.02491e+06
2.9122e+06
2.36025e+06
1.46513e+06
1.12515e+06
979897
928325
1.00591e+06
1.15384e+06
1.46216e+06
2.33045e+06
2.89727e+06
3.03894e+06
3.06881e+06
3.15887e+06
3.31445e+06
4.67616e+06
1.34394e+07
1.72941e+07
1.4872e+07
1.13899e+07
4.34742e+06
3.10475e+06
2.93928e+06
2.84945e+06
2.81472e+06
2.74329e+06
2.55851e+06
1.68922e+06
1.13196e+06
960329
906652
984243
1.15135e+06
1.6742e+06
2.55217e+06
2.73072e+06
2.81817e+06
2.86778e+06
2.97307e+06
3.15235e+06
4.45724e+06
1.19292e+07
1.52016e+07
307847
282714
330411
354118
372987
365135
343108
313972
295217
289449
291701
295034
299945
296876
263291
218649
197768
182800
171690
166959
163721
161141
159584
158605
157142
153982
147593
137242
126334
143402
368753
308598
366739
396983
426303
418612
387346
346406
316482
301648
299156
301399
306459
306168
280212
229878
203983
187488
173610
166527
162761
159477
157514
156296
154754
151803
145493
135096
124325
142314
390904
333161
422426
458583
501430
488941
445499
389423
342816
314858
305048
304053
306013
304708
285356
236758
208400
190312
174597
165008
160816
157121
154972
153535
151728
148841
142644
132399
122066
141223
425843
369634
507633
559671
618318
598338
539570
456628
384289
336692
314387
308207
307739
305996
289416
247248
215284
194369
176382
164223
158777
154701
152349
150657
148575
145539
139375
129202
119348
138854
466013
418502
639475
720158
813226
781979
690208
562309
448585
369525
327531
311850
307234
304709
289991
256428
222309
199306
178449
164188
156349
152018
149477
147469
145075
141717
135586
125820
116753
136769
508888
485264
846739
988248
1.15453e+06
1.09687e+06
951891
735643
549289
420234
347693
317364
307055
302421
289465
261704
229886
205546
182051
164591
154374
149346
146529
144161
141421
137671
131628
122676
114466
135242
552934
584645
1.18773e+06
1.45956e+06
1.75262e+06
1.64674e+06
1.41641e+06
1.0344e+06
713126
496862
378666
326292
306860
298762
287491
264554
235037
212179
187471
165611
153075
146920
143738
141138
138110
134116
128024
119568
112351
134069
602933
741869
1.74887e+06
2.25464e+06
2.52477e+06
2.35413e+06
2.08232e+06
1.53489e+06
978811
617349
426761
341143
308230
294973
284050
265311
236581
219873
194345
168520
152241
144973
141530
138697
135386
130980
124814
115324
107731
127856
668672
1.00821e+06
2.57211e+06
2.93147e+06
2.93837e+06
2.68773e+06
2.46584e+06
2.08306e+06
1.34567e+06
790511
496774
363641
311687
291260
278606
262315
236901
224323
202619
173336
151986
143139
139382
136497
132810
126885
118574
108381
101306
120637
764226
1.45039e+06
3.32095e+06
3.31498e+06
3.01857e+06
2.63733e+06
2.50568e+06
2.29924e+06
1.68516e+06
990784
587401
394871
318686
289293
272888
258016
235745
223085
214749
180582
152853
140086
135389
131270
126111
119337
111234
102217
96473
115575
904852
2.12565e+06
4.01713e+06
3.61398e+06
2.98318e+06
2.45663e+06
2.3459e+06
2.29597e+06
1.82853e+06
1.14943e+06
677114
430760
327925
288192
267339
252907
233695
219440
219871
193513
154989
136966
129661
124952
119686
113448
106210
98193.8
93315.7
111978
1.11384e+06
3.04289e+06
4.724e+06
3.92764e+06
3.00014e+06
2.33214e+06
2.17283e+06
2.2575e+06
1.82057e+06
1.23391e+06
736914
461451
336150
286530
261807
247854
232098
216019
219099
215663
161948
135121
125340
119992
114965
109013
102166
94768.7
90557.8
108723
1.4215e+06
4.09596e+06
5.45423e+06
4.26286e+06
3.0424e+06
2.23766e+06
1.98212e+06
2.17398e+06
1.77908e+06
1.24868e+06
755051
472642
338580
283336
256689
243802
231253
214163
217426
225170
181396
136409
122373
115836
110953
105155
98619.2
91760.8
88110.5
105744
1.85138e+06
5.17797e+06
6.26192e+06
4.60064e+06
3.09474e+06
2.18472e+06
1.84687e+06
2.04988e+06
1.71855e+06
1.20253e+06
736503
460618
332644
278012
252327
240882
231339
214303
217324
227197
218102
146102
120894
112939
107393
101759
95507.8
89107.3
85954.8
103039
2.40293e+06
6.39093e+06
7.13942e+06
4.8773e+06
3.15941e+06
2.17983e+06
1.78772e+06
1.93248e+06
1.65706e+06
1.11849e+06
685703
436415
320828
270635
247953
239185
233001
216654
219715
229258
238009
175746
123545
110805
104317
98785.7
92799.3
86795.2
84081.9
100588
3.10148e+06
7.79487e+06
8.06359e+06
5.15254e+06
3.23718e+06
2.20182e+06
1.76297e+06
1.79276e+06
1.59669e+06
1.0279e+06
623175
405897
305729
262820
245205
240199
237148
221369
223976
233071
243406
230572
138686
110247
102267
96166.5
90475.3
84803.5
82459.5
98336.7
4.0134e+06
9.45147e+06
9.03507e+06
5.47182e+06
3.37621e+06
2.2342e+06
1.75581e+06
1.66306e+06
1.44278e+06
952935
563943
375779
292556
258394
245085
243861
245149
228361
229996
238052
246599
253436
186557
115719
100853
93831.1
88427.9
83044
80972.8
96170.4
5.27089e+06
1.13664e+07
1.00561e+07
5.88918e+06
3.55933e+06
2.3058e+06
1.79187e+06
1.5852e+06
1.29676e+06
880338
535664
357448
288028
257048
248040
250330
253274
238487
237918
243686
250445
258144
247300
141041
101786
92435.2
86302.1
81338
79544.1
93983.1
6.7988e+06
1.34759e+07
1.11951e+07
6.45155e+06
3.78529e+06
2.4405e+06
1.8782e+06
1.56684e+06
1.22492e+06
823511
525014
360888
293551
263690
257465
260020
261008
253442
248457
250313
254357
258925
262614
207953
112628
91965.8
84703.7
79206.6
77945.8
91497.2
8.60524e+06
1.59356e+07
1.25071e+07
7.1728e+06
4.12372e+06
2.65921e+06
2.01667e+06
1.61154e+06
1.21111e+06
791316
523889
386591
312527
282250
272526
271716
267397
263692
261367
257531
257327
258789
261962
252886
151252
95656
83994.8
77581.2
76044.8
88872.4
1.18168e+07
1.83291e+07
1.39572e+07
8.15221e+06
4.65462e+06
2.98983e+06
2.237e+06
1.74561e+06
1.27647e+06
821385
558502
423329
345793
304417
288950
282581
271234
267859
268234
264235
259597
257588
258207
257771
219209
112357
84720.1
76758.1
74470.8
85790.7
1.44669e+07
2.13506e+07
1.59449e+07
9.60766e+06
5.47895e+06
3.47427e+06
2.56712e+06
1.99828e+06
1.46533e+06
942816
629546
468297
385083
328705
306936
289139
273797
268468
269216
266736
260972
255782
253911
252239
241283
158542
90143.6
76480
73717.7
84062.1
1.7475e+07
2.31525e+07
1.82868e+07
1.17219e+07
6.73121e+06
4.17754e+06
2.9962e+06
2.34906e+06
1.78536e+06
1.17477e+06
752806
539738
427810
359498
321270
294750
276502
268931
267466
264678
260495
253805
249806
245774
240742
210772
109570
77556.9
73148.4
82978.7
1.96098e+07
2.68796e+07
2.20357e+07
1.50362e+07
8.73678e+06
5.25379e+06
3.56165e+06
2.77214e+06
2.19106e+06
1.52549e+06
960419
648220
480265
392489
331824
301828
280577
270768
265442
261915
257481
251332
245403
240193
235215
224372
157949
84557.3
72989.7
82174.5
2.00239e+07
2.94657e+07
2.94091e+07
2.09318e+07
1.19891e+07
6.87118e+06
4.38626e+06
3.29026e+06
2.65156e+06
1.98958e+06
1.29549e+06
819599
555490
423762
346250
310116
286611
274442
265274
260210
255069
249452
242521
236563
230159
223546
197672
107751
75009.9
81715.2
144326
126756
137646
147757
153825
156825
158340
159400
161026
163504
166654
171617
183290
198713
221872
269066
296009
298089
293057
289726
288150
296193
317518
347286
369430
376419
356193
332347
283097
311064
143195
124724
135444
145575
151559
154416
156079
157422
159453
162549
166302
174022
188231
205388
234060
285268
304910
304336
299651
297409
301471
319407
352198
394317
425922
432510
400746
371006
309490
371676
142076
122424
132695
142668
148557
151442
153329
154909
157126
160667
164802
175182
191253
210157
241431
286959
303456
304034
302342
303939
316330
348043
398804
457164
499872
509513
465317
429520
334791
394574
139638
119672
129464
139370
145247
148346
150455
152290
154751
158726
164387
177126
195652
217546
251992
289954
304674
305832
306943
314498
340641
393318
471912
557724
616813
633521
571059
518241
372768
430321
137422
116988
126003
135543
141460
144902
147274
149402
152107
156402
164545
179533
200934
224827
260204
289909
303219
305997
311529
329578
377408
464025
587099
726090
818780
841769
739654
655579
423370
471188
135786
114611
122763
131530
137458
141272
143986
146455
149484
154658
165123
183496
207398
232364
264877
289289
301061
306334
318279
352987
434061
576569
780230
1.01575e+06
1.15787e+06
1.20571e+06
1.02597e+06
872807
493829
514591
134573
112429
119584
127912
133887
137920
140922
143625
147001
153468
166465
189208
214050
237081
267810
287391
297868
306945
329185
388723
520846
760195
1.11296e+06
1.53188e+06
1.75767e+06
1.85263e+06
1.53056e+06
1.2293e+06
599303
558892
128236
107803
115386
124680
130682
135104
138400
141370
145026
152727
169787
196207
221842
239262
266170
284004
294753
309454
346912
443958
657777
1.05786e+06
1.66956e+06
2.19983e+06
2.44409e+06
2.61098e+06
2.34408e+06
1.80948e+06
766468
610846
120914
101408
108446
118550
126686
132389
135956
139021
143110
152639
174912
204272
224921
239461
262865
278468
291796
314365
373297
523581
850379
1.45534e+06
2.19338e+06
2.53579e+06
2.72395e+06
2.9935e+06
2.99281e+06
2.63374e+06
1.04829e+06
679933
115887
96669.4
102377
111335
119313
125991
130981
135106
140189
153761
182280
215634
223134
237969
258274
273196
290820
323472
409371
625163
1.06621e+06
1.79393e+06
2.3706e+06
2.53112e+06
2.65085e+06
3.06471e+06
3.38159e+06
3.37392e+06
1.50974e+06
780415
112198
93472.8
98339
106367
113551
119757
124976
129674
137312
156198
195097
219046
219275
235527
253030
268198
290731
334971
450637
722523
1.2282e+06
1.90361e+06
2.34106e+06
2.35146e+06
2.49207e+06
3.05262e+06
3.71099e+06
4.08245e+06
2.20209e+06
928801
108857
90658.5
94856.3
102277
109097
115041
120063
125468
135693
163505
215526
217625
215857
233703
248119
263230
289973
345155
484513
782938
1.31033e+06
1.8887e+06
2.2946e+06
2.16752e+06
2.38032e+06
3.08553e+06
4.05932e+06
4.8153e+06
3.13251e+06
1.14905e+06
105815
88163.3
91797.1
98683.2
105212
111015
115921
122581
137304
182742
222660
215490
213693
232417
243861
258345
287367
348726
497198
802396
1.31471e+06
1.84898e+06
2.20293e+06
1.98783e+06
2.29221e+06
3.13582e+06
4.42557e+06
5.59044e+06
4.16721e+06
1.47924e+06
103072
85977.8
89112.5
95537.9
101797
107451
113044
121217
147178
217142
223763
214810
213358
231718
240498
253908
282132
342414
484377
782238
1.26225e+06
1.79348e+06
2.06761e+06
1.86717e+06
2.2427e+06
3.18966e+06
4.78277e+06
6.44209e+06
5.24973e+06
1.92872e+06
100602
84086.8
86773.2
92796.2
98802.8
104386
110929
124040
176251
233949
225423
216753
215271
232935
238539
249257
274364
329676
457579
727561
1.17638e+06
1.73425e+06
1.93769e+06
1.8171e+06
2.24054e+06
3.25887e+06
5.06732e+06
7.35702e+06
6.47167e+06
2.4954e+06
98350.2
82455.9
84755.4
90430.8
96154.8
102320
110429
139089
227581
238405
228789
220390
219385
236634
238938
245717
265704
312871
422697
659838
1.08371e+06
1.66272e+06
1.80661e+06
1.80029e+06
2.26829e+06
3.34606e+06
5.35752e+06
8.3207e+06
7.9002e+06
3.20805e+06
96174.7
80943.7
82969.2
88338.4
93802.9
100893
115962
185408
248006
241202
233120
225798
226366
244626
242101
244819
260238
298397
387961
591878
1.00716e+06
1.49616e+06
1.69881e+06
1.79846e+06
2.30988e+06
3.4982e+06
5.70523e+06
9.33912e+06
9.57801e+06
4.13067e+06
93940.3
79440.7
81216.6
86174.1
92378.5
101868
140825
242673
252157
244811
238454
233437
236699
251893
248174
246890
257542
292190
366812
556360
922923
1.34661e+06
1.63217e+06
1.83957e+06
2.38373e+06
3.69281e+06
6.15188e+06
1.04146e+07
1.15122e+07
5.38845e+06
91367.3
77716.2
79047.7
84587
91908.6
112709
205319
256829
252961
248606
245028
244143
251443
260045
257726
255110
263076
295559
369895
542004
856551
1.27111e+06
1.61623e+06
1.92978e+06
2.51912e+06
3.93417e+06
6.74643e+06
1.16073e+07
1.36522e+07
6.91631e+06
88630.6
75700.8
77467.6
83896
95660
150669
247660
256050
253060
251758
252938
257474
260382
266822
269703
271014
281657
313155
392015
538487
820733
1.2568e+06
1.66439e+06
2.0712e+06
2.74146e+06
4.27978e+06
7.50336e+06
1.29803e+07
1.61569e+07
8.69959e+06
85575.2
74250.7
76704.9
84749.5
112533
216375
252255
252571
252347
254928
262177
264480
264780
269646
281515
288053
305064
348122
426237
569583
850692
1.32103e+06
1.7939e+06
2.29605e+06
3.08026e+06
4.82534e+06
8.51866e+06
1.44881e+07
1.85877e+07
1.20062e+07
83916
73657.9
76540
90484
158472
237296
247420
248837
251330
257923
263484
266052
266195
272089
288724
305343
330333
389157
474284
643553
977759
1.51369e+06
2.05084e+06
2.63028e+06
3.58216e+06
5.67826e+06
1.00131e+07
1.65301e+07
2.16275e+07
1.461e+07
82831.4
73104.1
77738.1
110349
208463
236823
241774
245324
249902
257170
261450
264740
266775
274773
294727
321048
359598
431792
550507
775870
1.22044e+06
1.84426e+06
2.41471e+06
3.07238e+06
4.30975e+06
6.97416e+06
1.21704e+07
1.88703e+07
2.34948e+07
1.7568e+07
81986.2
72852.6
85040.4
158943
221222
231659
237044
241688
248341
254551
258558
263232
268827
278725
301736
333988
389429
484369
663927
997751
1.58667e+06
2.25999e+06
2.85127e+06
3.65556e+06
5.41582e+06
9.04838e+06
1.55802e+07
2.257e+07
2.70866e+07
1.96544e+07
81495.2
74967.5
109178
196457
220284
226860
233427
239371
246698
252680
257310
263149
272880
285504
311134
350848
428362
565267
846364
1.34983e+06
2.06351e+06
2.72849e+06
3.38918e+06
4.51757e+06
7.09338e+06
1.24078e+07
2.16751e+07
2.98485e+07
2.95587e+07
1.99994e+07
1.12269e+06
1.09331e+06
1.04514e+06
999955
955135
910683
866546
823294
782041
742472
705219
669773
636507
605153
575991
548852
524287
501579
480837
461996
444570
428889
414549
401557
390067
379689
370570
362848
356487
354338
358377
368284
387719
419354
464119
521953
592189
675335
770412
871057
977226
1.07607e+06
1.16772e+06
1.25175e+06
1.33047e+06
1.40613e+06
1.4918e+06
1.5835e+06
1.62988e+06
1.57809e+06
1.45338e+06
1.3206e+06
1.20961e+06
1.11986e+06
1.02662e+06
924941
823838
727569
647615
586513
541248
513125
492939
478192
466997
458557
451258
442613
433490
426168
420120
414966
410651
407376
404705
402037
399264
396350
393392
390746
388545
386577
384620
382340
379192
374891
369731
364290
358994
354015
349402
345175
341218
337252
332970
328135
322723
316976
311170
305502
299980
294659
289830
285522
281299
277510
274379
273219
274133
276323
279225
282373
285841
290011
297205
300411
300197
292540
262105
213637
169071
125906
97681.9
86213.7
82224.5
432536
428019
412168
401409
390490
380935
372371
363585
355092
348251
341768
336076
330814
325736
321732
317628
316008
313107
313393
313436
315232
318936
324476
332987
344862
360333
380087
403595
435255
482089
548693
642102
764633
910427
1.07884e+06
1.26212e+06
1.46181e+06
1.66264e+06
1.86209e+06
2.04625e+06
2.21554e+06
2.36918e+06
2.50462e+06
2.61828e+06
2.70586e+06
2.7657e+06
2.80979e+06
2.8367e+06
2.8413e+06
2.81503e+06
2.70861e+06
2.51209e+06
2.30396e+06
2.10898e+06
1.90285e+06
1.67782e+06
1.46755e+06
1.27929e+06
1.10143e+06
950824
826803
724364
639901
573048
522611
486729
459153
437412
420296
407386
397996
390711
385058
381235
378474
375746
372650
369073
364721
359412
353262
346474
339194
331782
324514
317564
310963
304544
298099
291530
284828
278047
271260
264542
258068
252200
247157
242766
239053
236158
234238
233702
234731
237122
240169
243466
247316
251602
258204
264877
272272
278721
280328
268135
254122
237761
220176
204880
193006
185953
182137
176684
157546
112559
85113.6