/*--------------------------------*- C++ -*----------------------------------*\
| =========                 |                                                 |
| \\      /  F ield         | OpenFOAM: The Open Source CFD Toolbox           |
|  \\    /   O peration     | Version:  2112                                  |
|   \\  /    A nd           | Website:  www.openfoam.com                      |
|    \\/     M anipulation  |                                                 |
\*---------------------------------------------------------------------------*/
FoamFile
{
    version     2.0;
    format      ascii;
    arch        "LSB;label=32;scalar=64";
    class       volScalarField;
    location    "0.00935";
    object      nut;
}
// * * * * * * * * * * * * * * * * * * * * * * * * * * * * * * * * * * * * * //

dimensions      [0 2 -1 0 0 0 0];

internalField   nonuniform List<scalar> 
13875
(
0.0511676
0.0366253
0.0343661
0.0343302
0.0342991
0.0343351
0.0342877
0.0342714
0.034317
0.0343129
0.0342809
0.0342886
0.0343221
0.0343417
0.0343305
0.0342934
0.0342677
0.0342893
0.0343023
0.0343266
0.0343038
0.0343341
0.0343826
0.0365595
0.0514317
0.0532619
0.0341199
0.0322224
0.0321072
0.0320622
0.0320813
0.032029
0.0320081
0.0320533
0.0320646
0.0320271
0.032042
0.0320539
0.0320724
0.0320605
0.032047
0.0320037
0.032034
0.032046
0.0320759
0.0320635
0.0321024
0.0322284
0.0340456
0.0536472
0.0564569
0.0335618
0.0318029
0.031593
0.0315679
0.0315741
0.0314653
0.0314254
0.0314597
0.0314655
0.0314341
0.03146
0.0315305
0.0315558
0.0315347
0.0314644
0.0314079
0.0314446
0.0314779
0.0315677
0.0315643
0.0315802
0.0317939
0.0334904
0.0566068
0.0590706
0.0332328
0.0314894
0.0312763
0.0312607
0.0312606
0.031141
0.0310971
0.0311232
0.031119
0.0310886
0.0311132
0.0312137
0.0312399
0.0312183
0.0311165
0.0310725
0.031102
0.0311463
0.0312539
0.0312551
0.0312625
0.031484
0.0331696
0.0591523
0.0611261
0.0330041
0.0312463
0.0310022
0.0309835
0.0309782
0.0308536
0.0308094
0.030835
0.0308318
0.0308012
0.0308233
0.0309252
0.0309546
0.0309299
0.0308269
0.0307861
0.0308143
0.0308592
0.0309687
0.0309765
0.0309898
0.0312294
0.0329218
0.061263
0.0628188
0.0328483
0.0310892
0.0307706
0.0307508
0.0307291
0.0305938
0.030549
0.0305717
0.0305695
0.0305398
0.0305592
0.0306631
0.0306948
0.0306677
0.0305623
0.0305256
0.0305531
0.0305997
0.0307199
0.0307436
0.0307612
0.0310583
0.0328249
0.0629695
0.0648272
0.0330733
0.031104
0.030632
0.0305674
0.0305221
0.0303664
0.0303193
0.030336
0.0303307
0.0303034
0.0303211
0.0304276
0.0304587
0.0304286
0.0303217
0.0302926
0.0303203
0.030376
0.0305121
0.03056
0.0306332
0.0311132
0.0330717
0.0648584
0.0670937
0.0339366
0.0314251
0.0306497
0.0304833
0.0303701
0.0301837
0.0301216
0.0301273
0.0301185
0.0300959
0.0301085
0.0302194
0.0302518
0.0302189
0.0301076
0.0300887
0.0301206
0.0301897
0.0303573
0.0304673
0.0306298
0.0313927
0.0338964
0.0673498
0.0736458
0.0362968
0.0320413
0.0308457
0.0304731
0.0302788
0.0300474
0.0299664
0.029957
0.029939
0.0299256
0.0299342
0.0300491
0.030083
0.0300494
0.0299348
0.0299226
0.0299581
0.0300439
0.0302597
0.0304503
0.0308024
0.0319358
0.0360017
0.0741886
0.0829014
0.0384718
0.0327368
0.0311887
0.0305785
0.0302456
0.0299787
0.0298842
0.0298584
0.0298313
0.0298255
0.0298332
0.0299474
0.029982
0.0299503
0.0298469
0.0298324
0.0298727
0.0299652
0.03022
0.0305503
0.0310811
0.032624
0.0381062
0.0835472
0.0907241
0.0441412
0.0346477
0.0319914
0.0308135
0.030363
0.0300507
0.0299108
0.0298631
0.0298297
0.0298237
0.0298314
0.0299396
0.0299748
0.0299515
0.0298727
0.0298561
0.0299034
0.0300352
0.0303037
0.0307943
0.0318815
0.0343633
0.0432637
0.0893488
0.0950655
0.0545213
0.0403794
0.0334533
0.0318678
0.0308381
0.0303367
0.030135
0.0300489
0.0300062
0.0299928
0.0300026
0.0300952
0.030133
0.0301224
0.0300727
0.0300644
0.0301369
0.0303213
0.0308357
0.0317991
0.0332286
0.0398478
0.0533644
0.0942631
0.0866098
0.0688115
0.0515534
0.0417877
0.0343749
0.03194
0.0312816
0.0308213
0.0306325
0.0305455
0.030507
0.0305084
0.030579
0.0306193
0.0306297
0.0306241
0.0306765
0.0308702
0.0313307
0.0320043
0.0347659
0.0415805
0.0509518
0.0687636
0.0866051
0.0796114
0.0660143
0.0581518
0.06551
0.0417452
0.0371447
0.0336287
0.0324316
0.0320324
0.0319749
0.031941
0.0319382
0.0319999
0.032041
0.0320662
0.0320914
0.03214
0.0325341
0.0340783
0.0382606
0.0432099
0.065716
0.0578356
0.0661731
0.0816131
0.0753378
0.064348
0.0565706
0.0605234
0.056249
0.053725
0.0442131
0.0388181
0.0367201
0.0358811
0.0355084
0.0353871
0.0354062
0.0354613
0.0355701
0.0358683
0.0366705
0.0389029
0.0451707
0.0552297
0.05574
0.0612489
0.0566001
0.0641526
0.0746641
0.0671793
0.0618876
0.0542846
0.0571805
0.0560831
0.0571597
0.0543993
0.0530602
0.0507633
0.0482982
0.0474705
0.0471294
0.0470403
0.0471194
0.0472795
0.0477808
0.0504411
0.0542667
0.0554476
0.0577159
0.0556116
0.0580084
0.0543108
0.0614955
0.0664795
0.0624149
0.0582146
0.0524347
0.0549651
0.0568057
0.0611969
0.0680651
0.0728491
0.0700642
0.0707256
0.0730517
0.0745215
0.0752887
0.0749772
0.0734574
0.0726452
0.0700818
0.072887
0.068692
0.061188
0.056292
0.0552991
0.0519616
0.0575745
0.0624357
0.05701
0.0546877
0.0530363
0.0568234
0.0599348
0.0630056
0.0708565
0.0791259
0.0744182
0.0703809
0.0692713
0.0693736
0.069905
0.0696294
0.0697835
0.0726781
0.0739667
0.0767671
0.0708542
0.06418
0.0609465
0.0576526
0.0528194
0.0542631
0.0567875
0.0513822
0.054149
0.055809
0.0617157
0.066891
0.0648445
0.0673566
0.0751813
0.0743884
0.0704988
0.068737
0.0683548
0.0684329
0.0689165
0.0698701
0.0717743
0.0728939
0.0731348
0.067729
0.0667286
0.0696809
0.0630139
0.0562485
0.0544061
0.0521542
0.0493699
0.0573194
0.0602853
0.0656413
0.0686666
0.0645891
0.0639286
0.0695195
0.0719142
0.0705019
0.0687599
0.0672323
0.0664966
0.0680807
0.0700699
0.0710026
0.069946
0.0678236
0.0645461
0.0665418
0.0707502
0.0664554
0.0608792
0.0576391
0.0487785
0.0774304
0.0887142
0.0773987
0.0652878
0.0649947
0.0616165
0.0607072
0.0655242
0.0694307
0.0695448
0.0677079
0.0652329
0.0640593
0.0663831
0.0690792
0.0695537
0.0672466
0.0640973
0.0614567
0.0634642
0.0667639
0.0669093
0.0799057
0.0917916
0.0823009
0.128313
0.161266
0.0900558
0.0620453
0.0608735
0.0586022
0.0580451
0.0625395
0.0670033
0.0678901
0.0659555
0.0628474
0.0613972
0.0641286
0.0673085
0.0676265
0.0647665
0.0613747
0.0587191
0.0602094
0.0623152
0.0637878
0.0931658
0.165503
0.134469
0.152669
0.145761
0.0842381
0.0592004
0.0575332
0.0560269
0.055668
0.0600947
0.0646945
0.0658575
0.0637489
0.060317
0.0586856
0.0615308
0.0650475
0.0655253
0.0624639
0.0590879
0.0562346
0.0572865
0.0586683
0.0606908
0.0839229
0.144445
0.153451
0.161327
0.146223
0.0767921
0.0570297
0.0547402
0.0536774
0.0536181
0.0578653
0.0624585
0.0636598
0.0613231
0.0576977
0.0561057
0.0589946
0.0627236
0.0634171
0.0602121
0.0568376
0.0541623
0.0548139
0.0558588
0.0585615
0.0777126
0.150498
0.160701
0.16717
0.147312
0.0727275
0.055446
0.0526686
0.0516879
0.0519552
0.0559035
0.0602707
0.0613672
0.0589377
0.0552721
0.0537161
0.056574
0.0604132
0.0612227
0.0581199
0.0548287
0.0523695
0.0527132
0.0538215
0.0570113
0.0744295
0.154325
0.167495
0.174605
0.150872
0.0699499
0.053954
0.0510501
0.0500032
0.0505983
0.0541909
0.0581861
0.0591265
0.0567021
0.0530442
0.0515199
0.0542699
0.0580895
0.0590183
0.0561944
0.0530652
0.0507865
0.0508187
0.0521428
0.0553284
0.0714763
0.156946
0.177171
0.184311
0.146969
0.0667299
0.0525345
0.0497937
0.0486331
0.0494625
0.0526883
0.0561592
0.0568001
0.0544369
0.0509732
0.0495344
0.0522331
0.0559681
0.0569345
0.0544403
0.0515213
0.0494165
0.049303
0.0509103
0.0539886
0.0689448
0.155218
0.184335
0.190085
0.146309
0.0648397
0.0514515
0.0488215
0.0475714
0.0484706
0.0513317
0.0543117
0.0547178
0.0524381
0.0491229
0.0477339
0.0503068
0.0538958
0.0549425
0.0528408
0.0501866
0.0482635
0.0481037
0.0498099
0.0527718
0.0671277
0.155626
0.192019
0.19516
0.148354
0.0637255
0.0505647
0.0480265
0.0468186
0.0476094
0.0500965
0.0525998
0.0527679
0.0506145
0.0474697
0.0461009
0.0485339
0.0519046
0.0529912
0.0513326
0.0489877
0.0472585
0.0471238
0.0488102
0.0517078
0.0652434
0.150946
0.200142
0.202073
0.145506
0.0627678
0.0498542
0.0472401
0.0462209
0.0469508
0.0489906
0.0509526
0.0508627
0.0488175
0.045905
0.0446267
0.0469975
0.0502349
0.0513197
0.0499712
0.0479222
0.046433
0.0463559
0.0479002
0.0509375
0.0645598
0.151714
0.203839
0.204267
0.141715
0.0622263
0.0494337
0.0465505
0.0456564
0.0463324
0.0479741
0.0494843
0.0491934
0.0472779
0.0445368
0.0432901
0.0455486
0.0485855
0.0496741
0.0487041
0.0469975
0.0457632
0.0456697
0.0470215
0.0503291
0.0636814
0.146943
0.209071
0.206769
0.141544
0.0621541
0.0493154
0.0459296
0.0450894
0.0457465
0.0470664
0.0481816
0.047736
0.0459115
0.0432978
0.0420879
0.0442084
0.0471098
0.0482377
0.0475603
0.0461713
0.0451359
0.0449962
0.046243
0.0500095
0.0631161
0.143673
0.211639
0.210929
0.137161
0.0618458
0.0493816
0.0454553
0.0446203
0.0451501
0.0462068
0.0469126
0.0463112
0.044587
0.0421506
0.0410027
0.0430675
0.0458276
0.0469355
0.0465039
0.0454146
0.044509
0.0444148
0.0456581
0.0499515
0.0631441
0.143026
0.213475
0.212001
0.134715
0.0616773
0.0496817
0.0451531
0.044183
0.0445112
0.0454092
0.0458006
0.0450975
0.0434585
0.0411276
0.0400199
0.041954
0.0446087
0.0457431
0.0455273
0.0447259
0.043898
0.0438928
0.045241
0.0500806
0.0632754
0.13984
0.216042
0.213014
0.134348
0.0613923
0.0500493
0.0451968
0.0437901
0.0439246
0.044627
0.0447852
0.0439809
0.042425
0.0402058
0.0391332
0.0409721
0.0434854
0.0446274
0.0446139
0.0440294
0.043336
0.0435036
0.0451436
0.0504332
0.0629839
0.137889
0.216894
0.21512
0.132599
0.0610139
0.0504361
0.0454496
0.0434813
0.0433744
0.0438535
0.0438271
0.042956
0.0414465
0.0393319
0.0383245
0.0400837
0.0425383
0.0436769
0.0437801
0.0433399
0.0428207
0.0431487
0.0453571
0.050933
0.0628014
0.138421
0.217772
0.215479
0.132765
0.0608638
0.051232
0.0459158
0.0433035
0.042903
0.0431277
0.042934
0.0420331
0.0405837
0.0385635
0.0375915
0.0392638
0.0415963
0.0427369
0.0429603
0.0426968
0.0423521
0.0429225
0.0457543
0.0516907
0.0623529
0.136828
0.219173
0.21557
0.135104
0.060739
0.0520069
0.0465317
0.0433403
0.0424512
0.0424496
0.0421152
0.0412114
0.0398163
0.0378488
0.036917
0.0384952
0.0407688
0.0419018
0.0421857
0.0420989
0.0419151
0.0429336
0.0464014
0.0524608
0.0618795
0.137636
0.219051
0.215965
0.134872
0.060203
0.052218
0.0473858
0.0435956
0.04212
0.0418407
0.0413322
0.0404016
0.0390533
0.0371862
0.036308
0.0378339
0.0400211
0.0411266
0.0414808
0.04156
0.041581
0.043131
0.0473002
0.0527913
0.061405
0.140274
0.21869
0.215093
0.136813
0.0596957
0.0522175
0.048464
0.0440265
0.0419476
0.0413198
0.0406473
0.0397037
0.038402
0.0365835
0.0357409
0.0371749
0.0393152
0.0404078
0.0408232
0.041106
0.0414405
0.043558
0.0482635
0.0526681
0.0608613
0.141409
0.218648
0.214563
0.139381
0.0595027
0.0521156
0.049885
0.0446816
0.0419778
0.0409439
0.0400492
0.0390556
0.0377842
0.0360294
0.0352227
0.036582
0.0386373
0.0397369
0.040253
0.0407716
0.0415183
0.0441869
0.0498815
0.052553
0.0604987
0.143646
0.21756
0.214683
0.141206
0.0592156
0.0517027
0.050585
0.0455358
0.0421385
0.0407699
0.039555
0.0384676
0.0372037
0.0354947
0.0347361
0.0360428
0.0380728
0.0391677
0.0397948
0.0406029
0.0417047
0.0451407
0.0510008
0.0523695
0.0610364
0.14636
0.216805
0.213917
0.14349
0.0592148
0.0511692
0.0505902
0.0468815
0.0425193
0.0407606
0.0392136
0.0379593
0.0366813
0.0350164
0.0342885
0.0355315
0.0374999
0.0386309
0.0394396
0.040613
0.0420904
0.0463648
0.0510377
0.0518024
0.0608974
0.148246
0.216621
0.213371
0.145864
0.0602497
0.0506665
0.0502226
0.0486235
0.0432381
0.040838
0.0390551
0.0375806
0.0362345
0.0345686
0.0338687
0.0350555
0.0369939
0.0381955
0.0392524
0.0407397
0.0428647
0.048344
0.0507128
0.0512291
0.061298
0.150375
0.215927
0.213134
0.147953
0.0602422
0.0501276
0.0496252
0.0495458
0.0445367
0.0410972
0.0389952
0.0373325
0.035843
0.0341697
0.0334952
0.0346523
0.0366068
0.03791
0.0391996
0.0410447
0.0443526
0.0495573
0.0501434
0.0508659
0.0625218
0.152573
0.215475
0.212208
0.14989
0.061409
0.0498346
0.0489559
0.0492417
0.0467064
0.0417857
0.0390772
0.0372545
0.0356117
0.0338688
0.0331818
0.0343233
0.0363303
0.0377951
0.0392484
0.0417093
0.0464893
0.0493339
0.0494539
0.0504253
0.0630358
0.154541
0.21513
0.211147
0.151918
0.0630051
0.04976
0.0483716
0.0487463
0.047971
0.0434439
0.0393251
0.0372176
0.0355138
0.0337028
0.0329175
0.0341215
0.0361959
0.0377608
0.0394516
0.0432856
0.0479801
0.0488462
0.0488214
0.0501943
0.0638518
0.156416
0.214097
0.209127
0.153157
0.0637606
0.0496594
0.0478753
0.0480927
0.047706
0.0457293
0.0401222
0.0372667
0.0354755
0.0336364
0.0327844
0.0340473
0.0361599
0.0378288
0.0402426
0.0457076
0.0478742
0.0481793
0.0483133
0.0502535
0.0654689
0.157727
0.211785
0.205705
0.153292
0.0647396
0.0497435
0.0474824
0.0473722
0.0472735
0.0472603
0.0419021
0.037571
0.0355213
0.0336295
0.032775
0.0340313
0.0361833
0.0380901
0.0419132
0.047486
0.0474528
0.0474274
0.0478682
0.0502774
0.066026
0.157841
0.208448
0.196834
0.150238
0.065549
0.049841
0.0471859
0.0467712
0.0467152
0.0470859
0.044517
0.0386858
0.0357357
0.0336722
0.0327932
0.0340612
0.0363375
0.0390815
0.0445584
0.0474792
0.046904
0.0467963
0.0474991
0.0502749
0.0663328
0.154555
0.199515
0.382746
1.5652
2.07186
2.05133
1.85068
1.64302
1.46151
1.29772
1.1361
0.970732
0.809411
0.670462
0.564912
0.491957
0.444939
0.415173
0.395513
0.381082
0.369014
0.358078
0.346982
0.335432
0.322951
0.308376
0.290281
0.268417
0.241765
0.206111
0.156402
0.108454
0.367253
1.64736
2.13509
2.08071
1.86328
1.65144
1.46999
1.30912
1.15299
0.9946
0.838931
0.699676
0.588537
0.509512
0.456153
0.421613
0.39872
0.381934
0.368221
0.356102
0.344249
0.332367
0.319402
0.303982
0.28546
0.263544
0.236786
0.201179
0.152351
0.106968
0.392975
1.8113
2.20208
2.11131
1.88158
1.66687
1.48591
1.32678
1.17445
1.02076
0.868359
0.729135
0.612478
0.526776
0.467204
0.42735
0.400939
0.381616
0.366396
0.353237
0.340901
0.328939
0.314925
0.298263
0.27962
0.258121
0.231519
0.196362
0.148692
0.105667
0.413708
1.89572
2.27048
2.15878
1.91715
1.69647
1.51423
1.35649
1.20726
1.05838
0.908588
0.767158
0.644697
0.550149
0.48279
0.436537
0.405751
0.383628
0.366521
0.352575
0.339334
0.325681
0.310771
0.294011
0.275031
0.253475
0.227103
0.192316
0.145721
0.10473
0.421752
1.96755
2.34737
2.21946
1.96561
1.73843
1.5542
1.39756
1.2508
1.10483
0.955081
0.811134
0.682941
0.578391
0.501321
0.448329
0.412641
0.387228
0.368301
0.351733
0.337089
0.322205
0.306747
0.289854
0.271273
0.249709
0.223258
0.188404
0.143087
0.103797
0.429511
2.04698
2.43056
2.28777
2.02169
1.78871
1.6021
1.44653
1.30225
1.15817
1.0084
0.862179
0.728411
0.614089
0.52651
0.464871
0.422711
0.393228
0.370238
0.351651
0.335408
0.319519
0.303692
0.286757
0.267917
0.246118
0.219527
0.184735
0.140479
0.102944
0.439071
2.12944
2.51789
2.36268
2.08569
1.84616
1.65839
1.50408
1.36238
1.21966
1.06998
0.922275
0.782458
0.658631
0.560088
0.48729
0.436359
0.400184
0.372987
0.351941
0.333753
0.317145
0.301227
0.283595
0.264568
0.24272
0.215902
0.181155
0.137967
0.102136
0.449535
2.21345
2.60973
2.44625
2.15719
1.91147
1.72332
1.57094
1.43165
1.29047
1.14195
0.99286
0.847293
0.714176
0.602716
0.516795
0.454943
0.4105
0.377943
0.353436
0.333164
0.315707
0.298694
0.280875
0.261675
0.239491
0.212426
0.177809
0.135651
0.101449
0.459913
2.29609
2.70715
2.53885
2.23921
1.98662
1.79852
1.64783
1.51108
1.37222
1.22617
1.07566
0.924907
0.782428
0.657194
0.556617
0.480894
0.425566
0.385821
0.356564
0.33378
0.314798
0.296587
0.278457
0.25903
0.236632
0.209403
0.174812
0.13335
0.100836
0.468799
2.37858
2.80972
2.64121
2.33341
2.07357
1.88452
1.73537
1.60131
1.4653
1.32168
1.16992
1.01535
0.864287
0.726122
0.609206
0.516947
0.447636
0.398017
0.362479
0.336116
0.314532
0.295179
0.276791
0.256953
0.234065
0.206566
0.171964
0.131458
0.100346
0.477052
2.45928
2.91681
2.75291
2.44003
2.17302
1.98172
1.83389
1.70258
1.56945
1.42718
1.27544
1.11855
0.960851
0.810209
0.676072
0.564941
0.478524
0.416069
0.372068
0.340565
0.315547
0.294828
0.275615
0.254732
0.231402
0.203687
0.169227
0.129769
0.0999362
0.48479
2.54062
3.02853
2.87222
2.55775
2.28481
2.09028
1.94333
1.81455
1.68299
1.54057
1.39036
1.23301
1.07034
0.908943
0.758075
0.626796
0.520937
0.442175
0.386716
0.347701
0.318538
0.295756
0.274542
0.252887
0.229053
0.20106
0.166695
0.128207
0.099599
0.493555
2.62432
3.14309
2.99737
2.68349
2.40706
2.20899
2.06301
1.93504
1.80282
1.66286
1.5147
1.35707
1.19024
1.02046
0.854958
0.703937
0.576463
0.478859
0.408556
0.359347
0.324099
0.297551
0.274223
0.25152
0.227066
0.198701
0.164398
0.126784
0.0992822
0.50137
2.71166
3.25796
3.12603
2.81501
2.53691
2.33884
2.19138
2.06109
1.92927
1.79374
1.64769
1.48957
1.31919
1.14247
0.965596
0.797216
0.648452
0.528578
0.439571
0.376605
0.332832
0.300776
0.275006
0.250817
0.225538
0.19673
0.16248
0.12556
0.0989788
0.50867
2.7965
3.37038
3.25593
2.95109
2.67392
2.47727
2.32653
2.19207
2.06377
1.93172
1.78733
1.62838
1.45539
1.27309
1.08737
0.905345
0.736503
0.592734
0.481064
0.400391
0.345113
0.306198
0.276893
0.250797
0.224597
0.195257
0.160997
0.124553
0.0985663
0.514403
2.87546
3.47839
3.3843
3.09087
2.81776
2.62061
2.46487
2.3297
2.20458
2.07524
1.93248
1.77309
1.59828
1.41154
1.21828
1.02515
0.838673
0.671059
0.533964
0.432856
0.362315
0.314495
0.280244
0.251818
0.224265
0.194249
0.159835
0.12369
0.0985599
0.520396
2.9449
3.58034
3.50714
3.23091
2.96581
2.76832
2.60709
2.47184
2.34926
2.22282
2.08217
1.92322
1.74744
1.55798
1.35893
1.1559
0.953712
0.763925
0.600944
0.475732
0.386307
0.326676
0.285767
0.254079
0.224574
0.193575
0.158801
0.122816
0.0986254
0.526354
3.00353
3.67361
3.62159
3.36772
3.11609
2.91814
2.75341
2.61874
2.49789
2.37428
2.23598
2.07827
1.9025
1.71155
1.50848
1.29769
1.08148
0.87239
0.684216
0.531987
0.419477
0.344386
0.294314
0.257846
0.225713
0.193309
0.157877
0.122106
0.098769
0.530324
3.0481
3.74911
3.72437
3.49739
3.26432
3.06903
2.90432
2.7713
2.65104
2.52961
2.39309
2.23754
2.06255
1.87031
1.66367
1.44652
1.21939
0.994675
0.783909
0.603104
0.463861
0.368949
0.30673
0.263397
0.22794
0.193663
0.157306
0.121532
0.0989517
0.532847
3.0775
3.79883
3.80868
3.61388
3.40785
3.22077
3.05958
2.92836
2.81082
2.68962
2.55359
2.40084
2.22751
2.03453
1.82497
1.60158
1.36602
1.12794
0.897695
0.68955
0.52104
0.402044
0.323718
0.271398
0.231516
0.194765
0.157252
0.121091
0.099057
0.536109
3.08258
3.81443
3.86438
3.71319
3.54299
3.37222
3.21859
3.09089
2.97542
2.85522
2.72104
2.57034
2.39858
2.20515
1.99228
1.7629
1.52033
1.26988
1.02369
0.791457
0.592701
0.445367
0.346641
0.282621
0.236778
0.196892
0.157779
0.120969
0.0993224
0.537174
3.06573
3.78548
3.87976
3.7894
3.6658
3.52121
3.38017
3.2594
3.14671
3.02888
2.89802
2.74888
2.5779
2.38352
2.1658
1.93053
1.68078
1.41974
1.15978
0.907016
0.678541
0.500396
0.376716
0.29749
0.243649
0.200008
0.158778
0.12103
0.0996293
0.539694
2.99583
3.68673
3.83226
3.83017
3.77123
3.66384
3.54481
3.43333
3.32579
3.21248
3.085
2.93752
2.76616
2.5689
2.34576
2.10393
1.8467
1.57692
1.30239
1.03123
0.776676
0.566931
0.414593
0.316003
0.251844
0.203274
0.159891
0.12112
0.0999227
0.535737
2.81589
3.45507
3.69842
3.82598
3.85343
3.79817
3.70765
3.61111
3.51196
3.40527
3.28166
3.13574
2.96224
2.76062
2.53189
2.28285
2.01833
1.73953
1.44939
1.16182
0.885886
0.646074
0.462202
0.339928
0.262502
0.207644
0.161577
0.121293
0.100195
0.522572
2.23228
2.90482
3.40199
3.74723
3.89818
3.91517
3.86488
3.7906
3.70333
3.60467
3.48655
3.341
3.16492
2.95848
2.72416
2.46721
2.19384
1.90508
1.604
1.30224
1.00798
0.73924
0.522301
0.371837
0.277384
0.214107
0.164078
0.121535
0.100346
0.108095
0.155782
0.205576
0.241355
0.268094
0.2898
0.307543
0.322206
0.334793
0.346308
0.357159
0.367782
0.379626
0.394366
0.414733
0.445947
0.495228
0.571229
0.681855
0.82596
0.990267
1.15708
1.31886
1.48348
1.66911
1.88329
2.0897
2.10839
1.58652
0.386143
0.10661
0.151879
0.200718
0.236516
0.26338
0.285376
0.303559
0.318619
0.331566
0.343564
0.355187
0.36706
0.38052
0.397489
0.420899
0.456563
0.511207
0.592706
0.707092
0.849949
1.00793
1.16806
1.32476
1.48706
1.67289
1.89161
2.11537
2.16982
1.66888
0.37062
0.105324
0.148324
0.195897
0.231413
0.258197
0.280354
0.299152
0.314764
0.327872
0.340222
0.35249
0.365559
0.380728
0.399985
0.426501
0.466325
0.526566
0.61407
0.732413
0.87445
1.02872
1.18415
1.33742
1.49816
1.68369
1.9057
2.14292
2.23629
1.83411
0.396349
0.104408
0.145339
0.191744
0.227114
0.253927
0.276155
0.295233
0.311791
0.325997
0.338308
0.351323
0.365663
0.382955
0.405102
0.435607
0.480787
0.548045
0.643452
0.767172
0.90916
1.06015
1.21121
1.3616
1.52148
1.70879
1.93704
2.18692
2.30256
1.918
0.417375
0.103511
0.14275
0.188057
0.223231
0.25005
0.272063
0.291259
0.308187
0.323251
0.337642
0.351189
0.366988
0.386411
0.411912
0.44739
0.499405
0.575246
0.679187
0.807681
0.951777
1.10306
1.24953
1.39776
1.55689
1.74677
1.98157
2.24486
2.37759
1.98846
0.42518
0.102694
0.140259
0.184705
0.219613
0.246869
0.269012
0.288179
0.30536
0.321322
0.337026
0.352794
0.370432
0.392183
0.421884
0.463557
0.524091
0.610503
0.72329
0.855699
1.00074
1.15061
1.29727
1.44325
1.60081
1.79274
2.03414
2.31063
2.45914
2.06649
0.432502
0.101923
0.137933
0.181488
0.216427
0.24373
0.266102
0.285345
0.302815
0.319245
0.336024
0.353625
0.374195
0.400496
0.435919
0.485581
0.556168
0.652908
0.77418
0.911933
1.05795
1.20647
1.35201
1.49642
1.65396
1.84525
2.09445
2.38317
2.54484
2.14774
0.442486
0.101268
0.135836
0.178533
0.213497
0.240894
0.263341
0.282765
0.300514
0.317748
0.335797
0.35618
0.379874
0.411082
0.453708
0.513588
0.596109
0.705037
0.835644
0.979077
1.12653
1.27268
1.41645
1.55913
1.71509
1.90698
2.1635
2.4651
2.63544
2.23002
0.452259
0.10068
0.133865
0.175679
0.210629
0.238165
0.260815
0.280494
0.298583
0.316598
0.336278
0.359463
0.387711
0.425707
0.478467
0.551324
0.647998
0.770015
0.910286
1.05911
1.20862
1.35182
1.49107
1.63209
1.7867
1.97963
2.24311
2.55688
2.73198
2.31174
0.462713
0.100209
0.132116
0.173042
0.207883
0.235711
0.258651
0.278613
0.297502
0.316638
0.33814
0.364896
0.399311
0.446586
0.512627
0.601475
0.714521
0.849543
0.998433
1.1514
1.30253
1.44647
1.57956
1.71574
1.86996
2.06503
2.33542
2.65877
2.83433
2.39294
0.471513
0.0998149
0.130546
0.170559
0.205282
0.233244
0.256727
0.277209
0.29686
0.317805
0.341998
0.373326
0.416077
0.475781
0.558267
0.665531
0.796286
0.943989
1.09994
1.2553
1.40753
1.54981
1.68244
1.81259
1.96399
2.16241
2.44042
2.76999
2.94133
2.47294
0.479417
0.0994764
0.129079
0.168196
0.202722
0.231017
0.255007
0.276592
0.297381
0.320542
0.348892
0.386745
0.44038
0.515868
0.617657
0.744873
0.892612
1.05184
1.21339
1.3696
1.52168
1.66386
1.79437
1.92283
2.06927
2.27077
2.55673
2.88862
3.05258
2.55404
0.48752
0.0990589
0.127461
0.165744
0.200358
0.229185
0.253891
0.276652
0.299392
0.326004
0.360131
0.40713
0.475173
0.569647
0.692755
0.839976
1.0029
1.17166
1.33832
1.4954
1.64563
1.7858
1.91702
2.04365
2.18857
2.38802
2.68206
3.01366
3.16692
2.63703
0.495939
0.0985929
0.126184
0.163916
0.198707
0.227842
0.253436
0.277599
0.303131
0.334435
0.376854
0.437261
0.523409
0.639719
0.784888
0.95013
1.12541
1.3017
1.4725
1.63056
1.77827
1.91505
2.04567
2.17237
2.31755
2.51678
2.81357
3.14254
3.28231
2.72349
0.503667
0.0984315
0.125252
0.162496
0.197377
0.227056
0.253752
0.279767
0.308764
0.346587
0.400322
0.47763
0.586425
0.726883
0.893358
1.07358
1.25836
1.44059
1.61418
1.77318
1.91861
2.0512
2.17831
2.30732
2.45601
2.65551
2.94971
3.27312
3.39536
2.80836
0.510958
0.0983047
0.124443
0.161374
0.196478
0.226825
0.254891
0.283288
0.317115
0.363417
0.431931
0.530375
0.664447
0.829443
1.01477
1.20727
1.4
1.58666
1.76195
1.92137
2.06485
2.19319
2.31661
2.44734
2.60086
2.8019
3.08991
3.40252
3.50383
2.88785
0.516701
0.0982648
0.123811
0.160518
0.195799
0.22718
0.257049
0.288672
0.328865
0.38642
0.473444
0.596842
0.757094
0.945195
1.14614
1.3494
1.54909
1.73889
1.91486
2.07375
2.21496
2.33986
2.46014
2.59137
2.75031
2.95263
3.23115
3.52657
3.60656
2.95909
0.522611
0.0984498
0.12329
0.159867
0.195474
0.228199
0.260326
0.296453
0.345249
0.417844
0.527253
0.678645
0.865002
1.07393
1.28866
1.50065
1.70474
1.89619
2.07187
2.2293
2.36793
2.49014
2.60886
2.73964
2.90221
3.1049
3.36983
3.64237
3.70108
3.02032
0.528777
0.0987127
0.122863
0.159484
0.195962
0.230015
0.26513
0.307416
0.367854
0.45958
0.595504
0.775323
0.986221
1.21205
1.43908
1.65781
1.86506
2.05755
2.23199
2.38698
2.52356
2.6444
2.76224
2.89216
3.05553
3.25584
3.50166
3.74673
3.7791
3.06696
0.532919
0.0989169
0.122365
0.159372
0.197012
0.233035
0.272007
0.322528
0.398124
0.513464
0.679038
0.88572
1.1175
1.35755
1.59473
1.81974
2.02959
2.22245
2.39539
2.54733
2.68286
2.80394
2.92015
3.04894
3.20988
3.40218
3.62106
3.8331
3.832
3.09852
0.535492
0.0990577
0.121771
0.159387
0.19868
0.237443
0.28164
0.342882
0.437581
0.580769
0.776613
1.00838
1.25661
1.50897
1.75453
1.98575
2.19876
2.39217
2.56348
2.71359
2.84721
2.96739
3.08308
3.20962
3.36374
3.54038
3.7228
3.89138
3.85093
3.10643
0.538947
0.0991915
0.121257
0.159417
0.200681
0.243023
0.294336
0.369452
0.487278
0.660536
0.885869
1.1395
1.40177
1.66512
1.91851
2.15577
2.37398
2.56896
2.74001
2.88888
3.019
3.13704
3.25146
3.37334
3.51549
3.66645
3.80257
3.90919
3.82495
3.09207
0.540323
0.0993676
0.121184
0.160256
0.203514
0.250115
0.310505
0.402946
0.547579
0.750925
1.00265
1.27522
1.55172
1.82455
2.08603
2.33006
2.55555
2.75431
2.92716
3.07449
3.20079
3.31456
3.4248
3.53876
3.66203
3.77541
3.84703
3.86602
3.7284
3.02455
0.543071
0.0996087
0.121522
0.162123
0.207839
0.25976
0.331346
0.445151
0.619215
0.852102
1.1256
1.41435
1.70548
1.98719
2.25674
2.5094
2.74272
2.94729
3.124
3.2715
3.39393
3.49974
3.6017
3.70267
3.79886
3.86197
3.847
3.73436
3.49708
2.84559
0.539559
0.0999845
0.122187
0.164756
0.213792
0.272737
0.358763
0.497999
0.703656
0.964958
1.25722
1.55925
1.86261
2.15464
2.4334
2.69533
2.93721
3.14698
3.32784
3.47686
3.59619
3.69232
3.78173
3.86132
3.91844
3.91273
3.77278
3.44045
2.94757
2.25976
0.526656
0.420831
0.427832
0.437494
0.450525
0.465615
0.48187
0.498881
0.516285
0.533568
0.550596
0.56726
0.583486
0.599187
0.614261
0.628696
0.642438
0.655435
0.667641
0.679104
0.689977
0.700382
0.710356
0.719909
0.728981
0.737607
0.745841
0.75377
0.761567
0.769125
0.776398
0.783349
0.78994
0.796129
0.801884
0.807122
0.811932
0.816669
0.820933
0.824816
0.828098
0.830782
0.832819
0.834116
0.834584
0.834192
0.833129
0.831177
0.828235
0.824202
0.819064
0.812939
0.805764
0.797463
0.788
0.777393
0.765744
0.753102
0.739484
0.724905
0.709394
0.693018
0.675867
0.658152
0.640431
0.622516
0.604354
0.586043
0.567603
0.549068
0.530477
0.511873
0.493308
0.474829
0.456478
0.438307
0.420366
0.402735
0.385457
0.368552
0.352008
0.335835
0.320106
0.304837
0.289981
0.275487
0.261309
0.247415
0.233813
0.2205
0.207526
0.194919
0.182776
0.171174
0.160218
0.150048
0.140792
0.132538
0.125351
0.119275
0.114279
0.110274
0.107175
0.104851
0.103161
0.10196
0.101157
0.100666
0.100381
0.100319
0.100416
0.100586
0.100819
0.101054
0.101291
0.10149
0.101638
0.101708
0.101634
0.101484
0.101217
0.10105
0.100784
0.100633
0.100511
0.100415
4.79432
4.80749
4.84291
4.91546
5.00414
5.10498
5.21272
5.32523
5.43715
5.54862
5.66038
5.77216
5.88382
5.99424
6.10259
6.20795
6.30914
6.40449
6.49392
6.57978
6.66497
6.75017
6.83457
6.91711
6.99769
7.07642
7.1533
7.22522
7.29255
7.35524
7.41312
7.466
7.51382
7.55655
7.59417
7.62666
7.65401
7.67625
7.69359
7.70639
7.71452
7.71777
7.71591
7.70856
7.69526
7.6737
7.64519
7.60907
7.56469
7.51145
7.44984
7.38015
7.30196
7.21514
7.11981
7.01663
6.90608
6.78813
6.66266
6.52949
6.38834
6.23791
6.07481
5.89163
5.69405
5.48999
5.28599
5.0805
4.87466
4.66946
4.46496
4.26198
4.06136
3.86401
3.67171
3.48633
3.30948
3.14153
2.98261
2.83399
2.69606
2.56785
2.44743
2.33327
2.22384
2.11791
2.01387
1.9103
1.80574
1.69928
1.5903
1.47893
1.36583
1.25198
1.13876
1.02761
0.920209
0.817785
0.722037
0.634173
0.554818
0.484217
0.422407
0.368999
0.323467
0.285181
0.253146
0.227126
0.206068
0.189264
0.176043
0.165405
0.156923
0.15028
0.145471
0.142252
0.139578
0.136647
0.133601
0.130791
0.128445
0.126438
0.125037
0.124001
0.12318
8.17832
8.23362
8.33511
8.48121
8.65645
8.84855
9.04846
9.25044
9.44913
9.64241
9.82964
10.0104
10.1842
10.3509
10.5098
10.6606
10.8031
10.9372
11.064
11.1857
11.3042
11.4185
11.5287
11.6348
11.7368
11.8336
11.9236
12.0062
12.0813
12.1489
12.2088
12.2611
12.3056
12.3426
12.3721
12.3944
12.4098
12.4181
12.4195
12.4141
12.4018
12.3822
12.355
12.3198
12.2757
12.2216
12.1576
12.083
11.9975
11.9007
11.7913
11.6712
11.5396
11.3965
11.2421
11.0769
10.9018
10.7168
10.522
10.3173
10.1029
9.87853
9.64355
9.3974
9.14076
8.87355
8.5941
8.30613
8.01309
7.71779
7.4212
7.1255
6.83142
6.54006
6.25264
5.97062
5.69524
5.42761
5.16844
4.91859
4.67875
4.44896
4.22845
4.01639
3.81177
3.61389
3.42205
3.23523
3.05295
2.87478
2.70057
2.53035
2.36437
2.203
2.04651
1.89521
1.74917
1.60821
1.47278
1.34269
1.21825
1.09966
0.987614
0.882766
0.785524
0.696346
0.615396
0.543918
0.481312
0.427467
0.381611
0.342259
0.309115
0.281788
0.260061
0.243349
0.229531
0.216863
0.205309
0.195363
0.186998
0.180422
0.175464
0.171547
0.168197
10.5827
10.6695
10.8173
11.0157
11.2464
11.4947
11.7494
12.0029
12.2498
12.487
12.7131
12.9273
13.1294
13.3195
13.4979
13.6652
13.8219
13.9689
14.1079
14.2404
14.3672
14.487
14.5999
14.7061
14.8052
14.8963
14.9772
15.0484
15.1101
15.1626
15.2061
15.2408
15.2669
15.2845
15.2941
15.2958
15.2901
15.277
15.257
15.2299
15.1959
15.1544
15.1053
15.0479
14.9815
14.9056
14.8198
14.7236
14.6166
14.4985
14.3685
14.227
14.0742
13.91
13.7347
13.5472
13.3511
13.1457
12.9305
12.7056
12.4709
12.2267
11.9724
11.7078
11.433
11.148
10.8527
10.5472
10.2315
9.90554
9.57312
9.23771
8.90161
8.56532
8.23117
7.90034
7.57393
7.25318
6.93913
6.63261
6.33426
6.04439
5.76313
5.4904
5.22608
4.97001
4.72208
4.48169
4.24867
4.0228
3.80366
3.59144
3.38602
3.18752
2.99567
2.81021
2.63098
2.45769
2.29037
2.12851
1.97196
1.82044
1.6742
1.5336
1.39869
1.26997
1.14745
1.03271
0.925606
0.827406
0.737757
0.65579
0.58294
0.520429
0.468266
0.424422
0.386007
0.350958
0.319723
0.293195
0.271615
0.254648
0.241386
0.2307
0.221369
12.6058
12.7106
12.8816