/*--------------------------------*- C++ -*----------------------------------*\
| =========                 |                                                 |
| \\      /  F ield         | OpenFOAM: The Open Source CFD Toolbox           |
|  \\    /   O peration     | Version:  2112                                  |
|   \\  /    A nd           | Website:  www.openfoam.com                      |
|    \\/     M anipulation  |                                                 |
\*---------------------------------------------------------------------------*/
FoamFile
{
    version     2.0;
    format      ascii;
    arch        "LSB;label=32;scalar=64";
    class       volScalarField;
    location    "0.00667";
    object      k;
}
// * * * * * * * * * * * * * * * * * * * * * * * * * * * * * * * * * * * * * //

dimensions      [0 2 -2 0 0 0 0];

internalField   nonuniform List<scalar> 
13875
(
812.095
3462.61
3540.43
3538.9
3541.79
3539.94
3542.16
3540.87
3540.46
3541.36
3541.98
3541.24
3540.62
3540.14
3540.44
3541.16
3541.9
3541.23
3540.81
3540.22
3541.17
3539.01
3540.12
3462.01
820.322
881.794
2936.61
3013.08
3000.4
3001.56
2998.18
2998.84
2997.82
2997.15
2996.33
2996.76
2998.23
2996.35
2996.34
2996.18
2998.48
2996.24
2997.12
2997
2998.58
3000.46
2999.28
3011.66
2934.58
894.294
993.361
2710.83
2777.51
2755.23
2759.33
2754.95
2748.06
2744.62
2743.28
2742.22
2741.35
2743.74
2751.15
2752.14
2750.88
2744.64
2741.23
2742.68
2745.33
2755.07
2757.68
2753.16
2774.53
2706.8
998.222
1091.06
2533.67
2581.03
2561.49
2567.2
2562.7
2553.88
2549.43
2548.21
2548.21
2546.75
2547.55
2559.01
2560
2558.84
2548.66
2547.35
2547.54
2551.18
2562.9
2565.5
2559.4
2579.15
2529.4
1093.86
1172.1
2380.44
2413.2
2392.91
2398.45
2394.24
2384.27
2380.29
2379.96
2380.12
2378.62
2378.66
2390
2391.39
2389.89
2379.75
2379.21
2379.02
2382.36
2393.9
2396.79
2391.18
2410.46
2375.36
1177.49
1240.99
2237.09
2270.95
2244.95
2251.58
2246.21
2234.33
2230.89
2231.09
2231.35
2229.73
2229.19
2240.57
2242.28
2240.51
2230.21
2230.51
2229.89
2233.09
2245.69
2249.95
2243.74
2267.85
2247.23
1247.39
1320.96
2121.77
2158.33
2120.36
2123.36
2116.23
2101.91
2098.42
2098.9
2099.2
2097.49
2096.37
2107.83
2109.69
2107.56
2097.25
2098.58
2097.66
2101.56
2115.52
2121.7
2119.77
2154.03
2095.69
1323.49
1409.75
2000.67
2073.53
2019.63
2016.42
2003.33
1985.57
1981.24
1981.63
1981.7
1980.12
1978.04
1989.69
1991.93
1989.47
1978.83
1981.47
1980.52
1985.47
2002.22
2013.98
2018.01
2068.24
1992.83
1420.29
1691.41
2029.37
2021.91
1944.36
1924.93
1905.37
1883.24
1877.86
1878.27
1877.91
1876.62
1873.6
1885.44
1888.13
1885.45
1874.68
1878.16
1877.22
1883.47
1903.97
1922.48
1942.23
2017.85
2033.56
1716.5
2509.14
2285.41
2018.06
1901.05
1858.88
1826.28
1801.73
1795.88
1795.36
1794.26
1793.21
1789.71
1801.13
1804.31
1801.68
1792.07
1795.1
1795.26
1801.59
1824.95
1855.76
1891.82
2011.32
2265.95
2529.29
3877.03
3026.35
2153.89
1915.96
1814.84
1772.23
1744.89
1735.93
1733.26
1730.95
1729.93
1726.26
1736.72
1740.3
1738.62
1731.5
1733.63
1735.53
1745.45
1768.69
1813.62
1907.58
2130.01
2936.84
3858.62
5185.96
6453.79
2853.17
1994.18
1854.41
1757.24
1713.57
1698.85
1692.34
1688.53
1687.1
1683.86
1692.4
1696.23
1696.13
1691.96
1693.94
1698.92
1713.17
1758.67
1847.76
1972.84
2786.65
6318.04
5120.31
5056.8
7619.06
7052.31
3342.16
2044.08
1798.33
1744.54
1704.3
1687.97
1679.82
1676.47
1673.23
1679.32
1683.13
1685.2
1685.53
1692.28
1708.61
1748.7
1804.89
2089.59
3227.94
6754.14
7650.86
5010.16
4826.03
6354.37
7176.51
8774.56
5180.4
2338.93
1904.37
1793.21
1756.23
1749.56
1746.99
1744.54
1749.52
1752.74
1755.82
1758.47
1763.38
1798.13
1944.85
2491.13
5623.85
8153.58
6963.69
6334.43
4832.7
4603.83
5511.48
6045.77
7017.42
6843.96
6760.25
3462.75
2408.03
2155.83
2055.07
2016.22
2001.8
2003.04
2007.83
2019.21
2052.19
2144.86
2404.5
3624.48
6945.63
6815.28
6712.38
5976.7
5493.84
4683.25
4296.42
4801.61
5128.4
5917.46
6086.01
6606
5628.65
5116.42
4969.89
4346.49
4407.38
4449.22
4510.13
4484.61
4425.25
4321.92
4935.68
5366.3
5699.42
6674.89
6001.99
5729.28
5091.31
4789.58
4370.62
3738.26
4053.99
4363.24
5109.85
5657.19
6625.74
7469.34
7952.5
7020.66
6306.76
6581.56
6806.61
6973.17
6908.87
6673.48
6578.59
6971.46
7967.86
7619.24
6615.25
5522.84
4942.22
4258.05
3982.81
3734.59
3074.04
3418.69
3986.3
4881.24
5589.58
6252.96
7320.94
8224.86
6559.44
5369.6
5237.58
5290.21
5387.88
5347.03
5305.6
5647.05
6500.22
7864.9
7393.1
6352.42
5605.43
4856.65
3931.03
3366.07
3042.64
2638.27
3172.98
3897.21
5242.95
6096.4
5785.77
6187.93
7029.03
6152.63
5100.83
4711.85
4596.78
4610.68
4658.38
4784.42
5186.03
5943.95
6737.35
6244.18
5895.04
6363.31
5386.82
3950.67
3180.9
2642.22
2516.64
3367.09
4133.44
5446.95
5841.94
5275.19
5298.21
5911.04
5659.1
4928.08
4416.22
4100.01
4025.5
4187.54
4514.48
4954.18
5432.09
5671.08
5324.8
5396
5993.25
5412.84
4219.65
3411.17
2518.15
4820.73
6924.48
5671.21
4887.39
5038.21
4636.35
4615.67
5136.24
5157.8
4623.18
4067.77
3650.08
3538.71
3773.89
4199.12
4637.41
4943.82
4939.13
4637.79
4749.25
5163.31
4837.49
5755.34
6666.22
4777.2
11042.9
20581.8
6807.38
4234.59
4339.54
4084.44
4092.71
4548.47
4672.26
4253.49
3701.23
3248.55
3119.55
3377.39
3832.83
4253.18
4473.09
4393.02
4106.73
4176.81
4428.19
4244.24
7255.75
19890.2
11068.4
12061
14807.9
5993.38
3763.82
3800.3
3642.9
3658.75
4068.08
4216.79
3860.25
3339.69
2897.16
2758.05
3007.12
3451.57
3847.29
4030.38
3939.03
3662.37
3711.41
3853.78
3784.36
6208.69
14639.9
11935.9
11476.8
14403.3
5110.36
3419.71
3368.95
3263.37
3285.75
3644.71
3797.2
3476.44
2989.73
2578.63
2452.42
2684.92
3102.55
3472.74
3634
3532.31
3290.06
3327.21
3420.12
3458.05
5286.64
14588.7
11399.5
11049.6
13892.3
4585.46
3164.9
3040.04
2947.25
2980.25
3282.82
3420.93
3132.12
2688.81
2311.35
2195.63
2408.31
2795.24
3134.25
3278.6
3183
2976.99
3001.62
3095.25
3211.57
4761.32
14418.5
11059.7
10737.1
13949.2
4213.41
2930.1
2775.44
2680.78
2727.11
2973.87
3088.61
2828.19
2428.7
2084.84
1978.26
2169.1
2517.81
2825.25
2959.12
2880.42
2710.74
2713.89
2823.65
2972.43
4308
13961.7
10874
10588.3
13173.6
3833.39
2714.24
2555.47
2455.15
2510.22
2705.25
2784.72
2547.03
2194.01
1889.77
1794.23
1969.34
2284.44
2558.88
2684.4
2625.64
2486.23
2481.26
2607.87
2767.27
3949.32
13458
10695.6
10459.4
12751.7
3580.94
2535.89
2378.43
2272.26
2324.35
2476.51
2527.13
2309.3
1996.47
1724.79
1636.89
1794.68
2074.65
2320.29
2440.27
2403.57
2295.39
2286.76
2419.48
2583.63
3676.85
13094.2
10590.5
10292.9
12612.1
3406.28
2382.18
2226.73
2124.71
2163.21
2277.41
2301.34
2102.53
1826.99
1583.75
1501.89
1642.65
1889.79
2107.25
2222.78
2208.53
2128.89
2125.73
2253.19
2418.78
3436.47
12278
10499
10084.6
12046.1
3258.54
2249.91
2086.48
1999.98
2025.61
2100.26
2096.43
1912.98
1671.33
1458.62
1385.02
1515.04
1736.23
1930.35
2039.36
2041.73
1987.99
1994.14
2108.06
2281.11
3289.35
11923.3
10335.7
9789.91
11231.6
3136.04
2144.64
1969.8
1889.33
1904.8
1948.04
1923.36
1754.87
1542.06
1352.02
1283.87
1400.83
1596.67
1769.16
1874.03
1894.47
1866.62
1877.46
1980.58
2163.26
3141.27
11171.6
10045.5
9527.62
10731.1
3039.15
2067.83
1863.06
1786.82
1797.43
1816.16
1776.32
1619.8
1429.78
1258.98
1195.61
1300.88
1475.29
1631.1
1732.11
1765.8
1758.57
1770.7
1867.1
2074.6
3018.91
10361.1
9732.6
9293.16
9931.59
2954.33
2010.23
1771.36
1696.02
1696.85
1695.8
1640.46
1495.67
1327.87
1175.9
1118.56
1215.76
1373.01
1512.63
1609.46
1653.48
1660.65
1677
1769.93
2008.86
2950.64
9812.74
9426.63
9062.69
9260.85
2872.9
1971.92
1699.05
1615.97
1603.06
1590.7
1526.09
1391.94
1240.9
1103.5
1050.37
1138.56
1279.92
1407.31
1499.17
1552.02
1568.69
1593.14
1689.57
1961.61
2885.2
9236.63
9141.1
8849.42
8799.74
2760.56
1946.11
1652.01
1540.82
1517.93
1495.86
1424.95
1300.14
1164.55
1039.45
990.435
1070.79
1198.28
1314.15
1402.25
1460.36
1483.63
1518.21
1634.25
1932.42
2792.44
8724.69
8894.11
8621.74
8275.08
2646.7
1925.93
1620.07
1476.18
1439.61
1406.59
1334.13
1217.62
1094.02
981.288
936.739
1011.56
1128.3
1234.9
1318.77
1377.62
1408
1452.33
1598.02
1917.53
2697.87
8378.27
8682.17
8400.77
7921.15
2548.27
1936.56
1604.47
1423.05
1371.4
1327.79
1253.18
1145.89
1033.61
930.267
889.017
957.379
1063.76
1161.84
1240.92
1301.58
1340.29
1395.88
1577.57
1914.88
2589.52
7871.54
8443.27
8193.11
7714.72
2460
1938.61
1601.47
1384.85
1309.22
1256.39
1181.85
1082.85
979.474
884.345
845.978
908.705
1006.71
1097.6
1171.35
1232.98
1279.04
1355.41
1571.45
1942.66
2488.55
7544.37
8233.48
7980.59
7350.9
2347.44
1899.69
1615.87
1360.54
1256.36
1192
1115.63
1023.83
929.39
842.502
807.363
866.227
956.578
1040.64
1109.89
1172.82
1227.4
1328.84
1590.07
1944.27
2403.81
7327.16
8048.03
7800.05
7105.55
2233.15
1849.29
1645.79
1348.62
1214.43
1136.8
1059.23
973.003
885.031
804.705
772.084
826.562
909.734
988.461
1054.21
1119.49
1186.71
1316.05
1613.74
1887.05
2287.1
7080.97
7838.09
7655.62
6937.33
2137.03
1789.67
1695.28
1352.1
1185.18
1091.14
1009.46
927.047
845.033
770.454
740.172
790.791
867.232
941.359
1004.93
1075.04
1158.77
1317.31
1681.66
1828.97
2179.68
6894.85
7660.02
7506.74
6754.26
2044.61
1713.39
1691.01
1368.15
1164.5
1056.68
966.413
885.079
807.524
738.703
710.787
758.582
829.86
900.567
963.92
1041.04
1138.31
1338.1
1708.72
1764.74
2139.85
6742.55
7517.1
7362.67
6620.92
1969.1
1636.87
1644.97
1418.24
1155.22
1031.67
932.593
849.024
774.673
710.257
683.95
728.443
794.73
863.2
929.33
1015.65
1127.14
1378.72
1670
1680.08
2047.62
6579.66
7374.76
7241.59
6487.06
1987.33
1569.38
1580.91
1474.94
1164.72
1012.92
908.745
819.619
745.484
684.184
659.105
700.853
763.369
831.606
903.447
998.28
1137.65
1464.84
1609.88
1601.23
1982.57
6454.49
7257.21
7115.39
6355.52
1928.89
1504.17
1506.78
1476.04
1204.72
1003.34
888.255
796.322
720.055
660.666
636.674
676.766
737.094
807.154
883.565
990.654
1192.8
1501.15
1540.71
1541.61
1993.34
6337.63
7156.86
6996.56
6198.6
1958.24
1454.53
1434.12
1426.71
1292.61
1017.28
875.5
780.121
701.106
641.077
617.071
655.943
716.551
788.983
868.645
1003.55
1285.53
1451.74
1469.17
1484.62
1968.05
6200.96
7049.63
6879.37
6048.35
2006.1
1420.04
1373.24
1371.49
1326.8
1080.26
870.888
765.64
687.205
626.615
600.642
640.404
701.182
773.742
861.493
1067.43
1330.34
1393.12
1404.52
1441.68
1970.52
6048.05
6928.56
6699.84
5868.75
1990.71
1385.98
1320.89
1314.67
1285.88
1174.34
894.596
754.527
675.248
615.559
588.528
629.021
688.768
762.643
885.864
1174.53
1291.27
1330.49
1349.75
1415.96
2017.18
5856.76
6734.57
6462.11
5642.03
1987.8
1361.89
1276.11
1258.37
1240.54
1214.31
971.09
756.043
666.139
606.65
579.924
619.454
678.011
760.563
954.983
1228.72
1246.97
1269.47
1300.66
1388.79
2005.12
5629.44
6490.9
5901.87
5255.9
1962.56
1339.48
1237.03
1208.85
1191.06
1177.68
1067.18
793.634
664.024
598.818
572.539
610.969
674.241
789.724
1065.48
1194.99
1198.71
1216.49
1256.03
1360.97
1965.96
5243.44
5934.01
984.066
1891.44
3433.97
4116.88
4112.57
3637.32
3270.42
3143
3088.58
2886.92
2316.7
1685.27
1264.63
1053.49
965.131
939.228
941.545
957.469
980.871
1007.49
1040.76
1079.83
1123.18
1166.89
1201.34
1196.68
1078.49
688.847
437.526
303.699
1048.81
2327.73
3958.18
4382.42
4081.72
3530.32
3156.7
3033.99
3015.03
2959.23
2620.55
1888.25
1364.95
1089.89
969.676
928.021
923.771
935.57
956.57
984.876
1018.63
1058.99
1104.95
1155.63
1200.45
1225.08
1196.16
950.462
489.85
304.454
1150.85
2805.32
4344.03
4454.83
3916.19
3366.4
2999.3
2885.4
2883.08
2834.63
2521.86
1851.85
1373.23
1095.33
962.695
911.714
901.945
912.285
930.578
957.628
990.349
1028.38
1072.53
1125.6
1177.82
1209.26
1195.92
1067.08
627.324
316.665
1291.35
3382.06
4646.19
4475.89
3770.46
3206.56
2829.24
2718.07
2744.1
2726.57
2494.68
1906.2
1416.31
1111.74
958.602
895.861
878.888
886.479
905.957
931.175
961.421
998.444
1042
1092.92
1146.56
1187.06
1192.07
1125.07
823.993
376.871
1455.83
3794.04
4867.1
4389.38
3585.79
2998.68
2638.02
2549.57
2600.95
2577.84
2392.57
1875.64
1411.73
1109.31
947.554
878.962
855.544
860.117
878.667
904.729
933.406
969.117
1010.76
1057.87
1107.74
1150.6
1172.16
1149.58
998.732
582.661
1672.69
4186.05
5011.88
4245.76
3374.25
2776.65
2445.5
2400.75
2487.86
2450.6
2279.37
1814.27
1394.25
1097.78
931.261
858.642
832.812
835.314
852.724
877.596
906.562
940.68
979.173
1021.56
1065.4
1107.75
1144.94
1187.61
1237.16
702.292
1914.76
4657.9
5152.62
4110.88
3157.92
2556.44
2268.24
2256.71
2376.32
2333.36
2161.71
1742.97
1357.78
1069.96
908.891
836.319
810.763
812.469
829.235
853.555
882.367
913.833
948.271
985.664
1025.39
1069.74
1129.85
1281.77
1468.99
755.009
2181.36
5139.41
5237.36
3955.78
2956.16
2399.88
2156.4
2159.15
2278.69
2233.02
2051.78
1676.5
1305.96
1032.56
882.643
814.244
790.561
792.223
808.86
832.956
861.357
890.42
920.831
954.182
992.849
1046.62
1162.97
1453.03
1474.69
782.248
2459.6
5587.2
5258.27
3797.61
2785.96
2280.35
2077.48
2092.91
2211.07
2162.66
1972.43
1608.89
1244.97
990.935
855.513
794.059
773.339
775.884
792.758
816.541
844.286
871.949
899.993
931.043
972.827
1049.89
1265.73
1536.53
1415.71
797.379
2752.84
5975.84
5230.07
3644.99
2667.17
2205.33
2033.76
2044.18
2157.34
2115.15
1924.81
1529.09
1174.94
942.983
831.466
778.467
760.477
764.863
782.171
805.721
832.32
858.616
885.171
917.179
967.978
1094.83
1411.41
1496.72
1365.48
807.553
3070.8
6296.9
5161.08
3521.82
2606.46
2170.8
1991.95
1978.36
2087.49
2058.99
1859
1431.02
1096.13
901.671
812.151
767.865
753.843
760.271
777.523
801.14
826.081
850.818
876.693
912.251
984.586
1190
1472.13
1451.2
1324.81
811.184
3428.51
6535.8
5101.02
3464.71
2580.86
2148.94
1946.25
1905.96
1986.86
1947.95
1710.38
1313.92
1018.86
870.345
800.265
764.167
755.204
763.574
780.786
802.692
825.274
847.996
874.282
917.796
1036.18
1331.13
1452.97
1413.87
1276.03
802.785
3782.94
6747.8
5092.27
3457.62
2582.65
2142.87
1911.96
1823.8
1844.7
1766.67
1505.56
1195.97
962.653
853.482
799.836
770.308
765.268
773.739
789.661
808.406
827.863
848.258
877.124
938.903
1126.62
1382.16
1415.67
1363
1203.77
783.952
4107.14
6982.96
5146.21
3495
2626.09
2167.71
1902.62
1752.26
1695.79
1571.11
1331.15
1115.02
941.589
854.561
812.435
786.663
783.364
789.955
801.405
815.471
831.115
850.114
884.333
982.91
1253.38
1359.38
1362.51
1292.64
1123.38
765.516
4406.44
7229.5
5252.23
3586.68
2717.04
2228.08
1921.83
1714.76
1588.58
1432.21
1233.9
1085.82
953.882
873.987
834.998
811.092
807.113
808.662
813.508
821.795
833.326
852.919
901.4
1060.47
1306.66
1307.52
1297.54
1211.13
1055.83
751.773
4697.94
7524.34
5433.38
3741.25
2857.82
2351.54
2013.91
1747.57
1558.38
1388.17
1230.3
1109.51
992.399
911.493
867.49
843.606
834.778
828.474
825.468
827.455
835.551
859.463
940.674
1174.52
1281.7
1252.14
1228.8
1140.87
1003.31
742.241
5013.69
7884.77
5692.96
3967.83
3063.91
2547.3
2199.85
1898.28
1663.11
1477.16
1323.05
1191.6
1063.61
974.094
913.405
886.158
865.992
850.102
838.51
834.345
841.36
878.252
1016
1229.27
1231.77
1199.72
1167.14
1085.57
960.191
735.103
5327.6
8303.67
6047.28
4276.16
3346.03
2821.38
2482.16
2167.75
1902.77
1690.26
1507.5
1339.26
1182.43
1073.7
983.314
941.927
903.221
875.865
855.45
845.855
856.528
924.877
1128.26
1214.92
1186.64
1150.96
1118.18
1045.46
928.489
730.524
5613.98
8809.07
6522.39
4677.14
3716.29
3190.93
2870.45
2559.86
2277.5
2031.98
1800.51
1575.35
1383.13
1228.65
1089.11
1015.11
951.578
909.874
880.537
867.098
891.988
1013.99
1187.31
1183.3
1151.34
1114.83
1081.91
1015.09
901.111
725.588
5928.02
9428.11
7102.88
5176.96
4189.44
3667.77
3362
3073.86
2789.84
2518.11
2233.46
1952.47
1693.99
1466.35
1247.36
1116.66
1020.06
959.721
919.627
907.812
966.932
1144.31
1190.16
1156.56
1121.88
1086.14
1053.92
989.617
877.46
722.863
6462.7
9980.98
7754.95
5787.24
4771.95
4242.76
3934.09
3682.84
3426.59
3146.47
2818.27
2487.58
2153.64
1820.44
1486.96
1270.9
1127.35
1038.14
982.668
984.674
1097.72
1204.92
1179.56
1133.49
1096.96
1065.64
1032.78
967.934
855.611
721.207
6863.24
10738.6
8502.32
6541.2
5485.94
4914.47
4567.34
4335.43
4127.99
3863.53
3529.41
3190.07
2787.63
2337.13
1868.52
1520.41
1301.99
1164.96
1092.83
1124.59
1241.37
1221.93
1171.47
1112.66
1078.84
1051.09
1014.58
947.628
835.932
719.574
7267.04
11241.7
9214.55
7467.27
6383.21
5722.76
5285.66
5007.92
4825.86
4608.36
4343.43
4030.55
3609.44
3067.15
2476.3
1933.42
1592.37
1381.21
1290.44
1330.16
1302.57
1229.51
1163.46
1099.65
1065.94
1038.71
996.898
927.537
816.674
715.78
7549.11
11836.3
10264.8
8802.74
7616.79
6780.69
6172.15
5783.83
5544.31
5369.39
5213.35
4971.89
4597.05
4054.27
3388.56
2631.65
2084.99
1756.32
1589.44
1465.33
1342.25
1237.04
1148.46
1084.13
1055.22
1025.42
979.575
907.177
798.953
710.941
7530.78
12905.1
12401.9
10981.1
9409.76
8234.13
7345.98
6779.66
6409.09
6213.08
6115.76
5980.53
5746.27
5329.05
4659.47
3717.75
2850.29
2245.11
1845.5
1575.52
1377.97
1234.47
1124.9
1067.16
1044.72
1011.07
961.713
886.621
781.862
705.851
303.314
437.559
684.785
1065.2
1182.41
1189.66
1157.72
1116.16
1073.24
1034.14
1001.93
976.882
955.465
940.509
939.173
969.719
1069.58
1304.04
1759.35
2424.78
2973.4
3146.93
3192.24
3333.23
3727.66
4218.5
4243.2
3551.73
1956.55
1003.13
303.844
488.752
943.497
1185.48
1214.23
1192.77
1150.14
1101.66
1053.31
1013.45
981.629
954.627
932.961
922.721
929.475
977.285
1111.09
1412.93
1974.39
2714.44
3013.98
3060.63
3080.96
3217.51
3616.75
4180.51
4509.18
4082.38
2411.68
1073.71
315.161
624.495
1062.31
1188.83
1202.85
1172.52
1122.77
1071.09
1026.34
989.103
956.396
928.854
908.794
902.002
914.521
972.247
1117.79
1419.19
1928.76
2610.31
2891.34
2924.1
2926.36
3055.11
3446.9
4021.63
4589.92
4485.36
2906.77
1180.6
369.078
822.08
1121.92
1188.11
1183.45
1143.27
1090.92
1040.41
997.413
960.807
929.469
903.148
884.85
879.828
900.529
970.691
1137.79
1466.14
1983.93
2565.19
2774.1
2779.52
2753.41
2878.57
3275.45
3868.86
4606.34
4790.65
3485.55
1325.35
566.538
992.813
1147.64
1170.85
1148.47
1104.83
1055.46
1008.66
967.797
932.271
902.246
877.279
860.339
857.386
883.624
961.266
1137.71
1459.51
1947.49
2455.49
2624.42
2635.35
2581.22
2685.11
3054.47
3669.04
4507.61
5008.68
3891
1494.48
706.64
1218.09
1182.93
1143.63
1105.19
1062.23
1018.47
976.8
938.713
904.913
875.889
852.217
836.463
835.367
865.109
945.838
1125.91
1441.85
1880.95
2336.02
2496.27
2522.14
2429.83
2487.01
2830.39
3453.51
4366.6
5160.16
4296.45
1716.59
761.994
1470.34
1271.1
1126.65
1066.84
1022.29
982.954
945.99
911.479
879.871
851.839
828.767
813.834
813.653
844.411
923.723
1097.05
1402.66
1802.62
2213.63
2379.1
2411.66
2283.27
2305.46
2609.03
3233.35
4230.26
5307.09
4788.1
1962.24
790.26
1486.17
1437.13
1154.64
1042.51
989.352
950.93
918.056
887.395
858.104
831.127
808.176
793.439
793.64
822.994
898.297
1059.4
1351.38
1732.09
2103.38
2280.79
2317.24
2187.75
2193.93
2451.42
3028.24
4073.99
5393.8
5279.44
2232.38
806.155
1428.21
1538.24
1253.64
1043.23
967.957
926.531
895.937
868.266
841.142
814.861
791.612
776.641
776.506
802.77
871.842
1017.49
1290.45
1664.22
2025.52
2211.34
2249.62
2124.03
2114.11
2329.49
2855.04
3914.67
5418.4
5737.58
2513.87
817.599
1374.42
1496.53
1399.54
1085.07
961.774
911.999
880.501
854.643
829.196
803.579
780.526
764.992
763.31
785.512
847.102
967.81
1218.51
1585.15
1979.17
2162.19
2191.14
2076.25
2070.19
2255.24
2734.39
3760.67
5395.07
6131.02
2809.93
822.576
1331.95
1446.55
1463.73
1177.56
976.797
906.279
871.297
846.239
822.265
798.343
776.473
760.121
755.953
773.005
822.833
922.045
1133.2
1489.25
1909.2
2103.58
2115.14
2009.57
2029.28
2220.53
2673.19
3635.92
5333.11
6461.32
3133.29
814.138
1283.22
1407.8
1443.15
1317.22
1025.43
910.924
868.114
842.401
820.381
798.779
778.895
762.892
756.693
768.086
807.415
885.141
1047.02
1369.84
1760.41
1988.89
2011.19
1934.33
1984.69
2200.1
2646.6
3578.45
5275.58
6714.99
3493.52
794.041
1208.6
1358.53
1404.61
1375.61
1113.69
930.697
870.245
841.735
821.926
803.437
786.645
773.177
766.588
773.821
805.181
863.32
982.905
1238.07
1552.07
1800.04
1865.23
1850.7
1950.75
2194.32
2650.01
3570.41
5272.63
6943.82
3849.4
774.383
1129.31
1290.09
1351.8
1354.38
1239.66
972.438
877.243
843.4
824.886
810.182
797.72
788.671
784.575
789.872
816.846
861.177
955.554
1140.97
1365.44
1595.34
1714.16
1777.54
1940.51
2219.63
2695.16
3606.88
5336.4
7194.12
4176.88
759.7
1061.11
1212.42
1288.61
1301.57
1297.6
1045.34
893.482
846.681
827.616
816.972
809.961
807.018
807.982
814.305
838.993
879.585
963.315
1102.02
1257.42
1454.45
1608.05
1742.64
1962
2282.51
2788.25
3698.83
5455.96
7465.95
4480.63
749.204
1008.78
1142.07
1223.27
1243.8
1276.33
1153.77
929.34
853.489
830.657
823.458
822.657
827.252
835.718
847.704
871.102
916.767
999.822
1120.47
1247.49
1408.14
1580.5
1779.64
2057.91
2409.4
2932.49
3855.27
5646.89
7784.29
4777.85
740.868
966.742
1087.31
1166.88
1190.5
1227.79
1219.36
1000.28
870.814
836.965
831.414
837.042
850.253
868.056
892.135
919.365
981.181
1072.15
1201.44
1340.47
1499.11
1689.59
1935.51
2248.6
2609.17
3142.57
4084.76
5914
8167.21
5100.17
734.135
935.225
1047.36
1119.86
1151.12
1183.82
1210.49
1108.1
913.331
851.834
844.149
855.955
878.341
908.248
951.289
993.674
1084.69
1197.83
1348.14
1530.5
1722.47
1939.07
2212.72
2537.24
2889.67
3430.74
4395.71
6275.44
8608.8
5423.62
728.905
908.438
1017.93
1083.93
1116.61
1150.45
1181.89
1181.67
998.685
885.385
866.664
883.57
916.09
962.248
1031.49
1107.97
1249.14
1410.97
1604.94
1834.97
2078.33
2330.08
2616.9
2935.76
3267.98
3810.18
4804.09
6758.76
9137.95
5724.69
727.416
885.661
993.578
1056.95
1089.78
1125.14
1158
1190.51
1129.93
956.769
908.054
926.014
971.118
1038.93
1144.86
1282.24
1504.24
1741.34
2003.45
2288.97
2580.91
2865.15
3146.64
3440.62
3756.3
4296.94
5316.27
7349.94
9781.46
6051.59
727.747
864.289
972.807
1036.6
1070.19
1104
1138.71
1183.03
1206.46
1084.51
984.833
993.62
1056.76
1157.61
1316.01
1549.78
1888.5
2232.01
2570.1
2899.88
3232.34
3527.09
3778.16
4030.58
4347.52
4895.83
5940.94
8008.4
10346.4
6611.86
725.355
845.52
953.564
1019.89
1055.93
1085.92
1118.66
1177.99
1231.19
1246.4
1126.76
1110.59
1196.68
1351.9
1594.17
1974.71
2450.05
2910.3
3312.57
3647.08
3975.36
4252.86
4459.91
4686.17
5039.14
5630.73
6720.2
8760.74
11103.3
7031.95
721.108
826.732
935.06
1004.06
1044.54
1073.45
1107.74
1173.89
1242.92
1320.59
1347.46
1322.16
1437.57
1680.77
2064.25
2646.02
3241.65
3785.07
4198.35
4505.51
4753.6
4973.25
5166.63
5428.73
5871.56
6556.62
7679.79
9482.19
11611.9
7450.39
716.28
808.345
915.972
987.975
1033.21
1063.63
1094.43
1163.49
1254.6
1369.39
1507.78
1651.6
1855.52
2240.82
2862.19
3650.42
4310.77
4836.76
5191.09
5419.33
5550.91
5716
5969.7
6346.54
6958.11
7821.69
9055.78
10547.4
12200.1
7741.21
711.411
789.919
895.966
971.428
1020.84
1054.71
1079.21
1144.4
1258.54
1413.45
1634.63
1943.35
2406.81
3101.06
4072.87
5038.26
5686.95
6066.95
6260.31
6372.15
6422.96
6603.98
6988.87
7557.33
8453.71
9664.28
11280.8
12733.2
13282.1
7721.53
1573.17
1493.01
1402.91
1357.64
1299.96
1255.76
1212.75
1176.61
1142
1127.74
1134.86
1149.84
1167.47
1201.29
1251.89
1314.47
1394.11
1495.42
1622.68
1780.66
1962.51
2158.88
2357.8
2552.19
2725.66
2869.82
2982.88
3059.1
3101.72
3109.97
3086.44
3040.13
2973.4
2894.03
2808.43
2718.46
2624
2523.61
2415.92
2301.39
2182.08
2060.46
1940.93
1828.09
1726.44
1633.66
1552.28
1475.46
1398.27
1319.06
1242.53
1169.82
1100.43
1032.25
967.516
907.248
850.72
798.141
748.776
703.7
663.975
629.565
600.471
575.302
554.223
536.914
522.953
511.867
502.983
495.552
489.025
483.107
477.761
473.074
469.029
465.587
462.668
460.241
458.3
456.87
455.998
455.682
455.887
456.556
457.697
459.309
461.295
463.453
465.57
467.498
469.192
470.703
472.148
473.602
475.042
476.404
477.579
478.759
479.845
481.268
483.109
485.096
488.213
491.793
495.779
500.236
505.243
511.625
518.553
526.918
536.86
548.151
561.281
575.705
589.123
601.187
613.702
629.14
648.524
666.238
676.164
684.412
692.223
699.77
706.203
6514.95
6097.48
5512.66
5185.77
4880.07
4601.29
4319.98
4072.85
3873.5
3782.85
3791.6
3862.19
3944.44
4033.25
4173.81
4372.16
4667.34
5083.76
5649.5
6385.06
7250.35
8220.93
9210.9
10189.7
11051
11745.5
12271
12590.5
12751.2
12771.6
12684
12524.9
12317.1
12075.4
11806.8
11507
11167.3
10781.3
10350.8
9880.65
9382.28
8866.37
8348.91
7839.06
7344.65
6851.1
6365.19
5896.64
5437.75
4980.14
4536.27
4113.12
3710.55
3327.49
2968.5
2638.21
2339.62
2073.65
1842.12
1643.67
1475.19
1333.72
1215.03
1114.79
1029.81
960.188
904.689
860.723
825.159
795.071
768.217
743.372
720.132
698.486
678.461
660.114
643.53
628.755
615.747
604.371
594.449
585.788
577.988
570.937
564.59
558.911
553.802
549.091
544.559
540.04
535.462
530.873
526.398
522.163
518.18
514.4
510.675
507.139
503.735
500.873
498.641
496.606
495.775
495.914
497.387
499.996
502.961
507.264
512.147
518.46
526.598
537.642
549.347
561.41
575.909
593.713
613.726
634.936
658.03
683.097
705.938
724.894
740.771
756.648
772.961
22285.8
21499.7
20073
19127.2
18296.8
17428.6
16567.6
15782.3
15138.5
14403.2
13680.7
13096.9
12586.7
12176.9
11949.7
11856.6
11971.9
12327.2
12959.8
13913.2
15133.6
16524.7
17948
19303.9
20484.9
21444.8
22190.4
22697.4
22983.7
23087.5
23046.3
22897.5
22676.9
22401.7
22086.4
21723
21290.8
20769.7
20152.6
19443.1
18655.4
17804.7
16906.7
15974.4
15015.5
14029.3
13019.7
12006.5
11008.6
10038
9104.69
8228.22
7413.52
6660.58
5967.62
5328.35
4729.54
4173.37
3661.84
3195.79
2783.09
2430.48
2137.12
1898.19
1704.61
1548.06
1422.61
1322.25
1240.16
1170.29
1108.84
1054.01
1004.96
961.139
921.986
887.052
856.248
829.594
806.844
787.378
770.379
754.912
740.602
727.288
714.856
703.181
692.093
681.369
670.804
660.288
649.812
639.462
629.454
620.013
611.282
603.159
595.379
588.005
581.112
575.131
570.299
566.346
564.269
563.66
564.496
567.152
571.257
577.42
584.876
594.163
605.884
620.292
636.1
653.289
672.535
693.508
715.068
737.498
760.162
781.751
802.083
821.33
838.82
855.367
874.323
54555.6
53825.7
52081.6
50690.7
49252.6
47606.6
45571.3
43054.3
40444.6
37727
34998.9
32503.9
30261.7
28327.7
26822.9
25746.8
25185.8
25184.9
25757.5
26868
28399.2
30157.1
31949.9
33632.8
35094.1
36287.8
37221.6
37904
38376.8
38686.4
38880.3
38978.9
39012.1
38989.1
38900.1
38718
38402.7
37918.9
37248.8
36392.7
35362.9
34173.1
32833.2
31347.6
29736.1
27997.3
26137.8
24186.3
22175.8
20146.7
18142.6
16209.4
14382.5
12693.8
11163.4
9795.17
8583.75
7514.48
6574.74
5754.35
5040.14
4405.95
3839.81
3345
2927.95
2585.17
2310.36
2095.79
1927.33
1789.76
1671.99
1569.23
1479.65
1401.96
1334.66
1275.81
1223.8
1178.28
1139.69
1107.78
1079.95
1054.01
1028.89
1003.94
978.928
953.83
928.697
903.584
878.458
853.374
828.617
804.567
781.616
760.088
740.28
722.16
705.63
690.696
677.232
665.816
656.097
648.447
642.755
639.409
638.154
639.14
642.933
648.628
656.934
667.555
680.356
695.4
712.257
729.649
747.6
766.758
787.087
808.794
831.848
854.059
873.237
892.115
911.976
932.744
953.252
94223.7
94229.1
93221.4
92193.1
90748.6
88723.3
86029.2
82568.6
78019.7
72956
68105.3
63384.8
58972.4
55124.1
52037.6
49787.4
48482.1
48087.8
48503.1
49567.3
51046.9
52710.2
54378.7
55930.6
57295.5
58461.2
59451
60293.6
61031
61698.2
62315.6
62909.5
63462.7
63940.8
64287
64443.6
64354.3
63978
63297
62317.2
61055.5
59528.7
57750.3
55744.6
53538.2
51089.9
48413.5
45541.9
42515.3
39380.6
36189.8
32995.4
29848.1
26798.6
23890.8
21163.9
18640.6
16327.8
14231.6
12356.7
10695.8
9228.43
7926.39
6775.59
5783.93
4953.38
4277.38
3754.43
3366.19
3081.19
2863.79
2690.78
2549.42
2431.54
2331.75
2246.2
2171.9
2106.27
2046.32
1987.93
1931.05
1875.5
1819.52
1761.09
1698.58
1631.52
1560.06
1485.14
1408.23
1330.88
1254.57
1181.01
1111.74
1047.93
990.443
939.636
895.326
856.967
823.751
795.528
772.277
753.258
738.413
727.501
720.277
716.513
716.946
720.745
727.818
736.189
747.107
760.755
774.85
790.291
808.301
828.324
849.136
870.658
892.056
911.942
932.408
953.571
974.52
992.76
1007.74
128338
129271
129331
128973
127874
125887
122983
119224
114724
109511
103488
97420.4
91833.1
86721.8
82589
79563.8
77765.6
77089.5
77310.5
78162.6
79384.5
80760
82171.7
83545.8
84861.6
86123.2
87355.1
88582.7
89820.7
91056
92308.4
93528.3
94647.4
95587.1
96270.4
96631.3
96613.4
96185.6
95351
94138.4
92584.5
90720.8
88578.9
86235.5
83599.9
80685
77525.6
74165.9
70651.2
67026.2
63332.6
59606
55878.6
52183.3
48560.7
45040.8
41628
38321.2
35120.9
32029.3
29045.6
26149.3
23309
20508.3
17770.7
15193.8
12938.2
11097.5
9573.87
8317.12
7325.09
6570.76
6010.45
5599.07
5293.55
5055.82
4855.12
4671.44
4495.46
4324.95
4156.89
3989.81
3823.24
3657.04
3489.95
3318.29
3140.81
2956.41
2764.07
2566.8
2367.93
2171.49
1981.37
1801.77
1636.5
1487.82
1356.63
1243.44
1147.45
1067.23
1001.38
947.691
905.199
872.457
847.895
831.082
820.689
816.13
815.725
819.287
826.187
833.745
843.761
857.381
874.562
893.367
912.828
934.123
955.355
975.221
993.621
1009.77
1023.59
1035.05
1045.25
153477
155212
155697
155385
154211
152063
148924
144919
140209
135118
130122
124225
118511
113675
110063
107620
106277
105889
106250
107146
108329
109704
111195
112761
114385
116070
117827
119658
121545
123430
125220
126882
128317
129434
130152
130424
130220
129542
128430
126942
125137
123073
120836
118336
115583
112625
109511
106292
103014
99715.3
96422.3
93147.7
89895.9
86660.6
83450.9
80300.4
77166.1
74012.2
70809.7
67536.3
64171.7
60689.9
57035.6
53172.9
49102.8
44889.6
40622.2
36352.2
32223.5
28339.3
24901.6
21993.8
19508.8
17411
15647.3
14159.4
12895.4
11810.7
10870.1
10047.3
9319.54
8667.98
8078.14
7537.53
7038.43
6574.58
6135.44
5715.63
5306.66
4908.43
4520.1
4140.12
3770.16
3412.5
3071.37
2751.68
2455.19
2184.03
1942.55
1732.39
1553.49
1403.57
1281.71
1185.16
1109.3
1052.52
1011.13
982.968
961.712
947.897
939.578
936.147
937.021
943.05
954.472
969.627
987.521
1005.35
1020.8
1032.86
1041.19
1045.85
1050.47
1057.78
1066.04
169904
171475
171508
170803
169186
166491
162779
158292
153305
148201
143530
139463
135459
132351
130195
129231
129210
129901
131094
132649
134467
136483
138636
140888
143225
145638
148112
150611
153080
155462
157635
159435
160847
161841
162358
162365
161878
160961
159686
158128
156360
154470
152390
150124
147735
145278
142808
140373
138011
135744
133572
131479
129436
127409
125367
123268
121070
118728
116187
113398
110232
106801
102986
98752.4
94103.7
89090.2
83764.9
78182.7
72405.8
66531.3
60642.8
54779.6
49108.3
43855.9
39227
35121.9
31486.5
28259.5
25392.9
22845.9
20581.1
18564
16774.7
15186
13773.6