/*--------------------------------*- C++ -*----------------------------------*\
| =========                 |                                                 |
| \\      /  F ield         | OpenFOAM: The Open Source CFD Toolbox           |
|  \\    /   O peration     | Version:  2112                                  |
|   \\  /    A nd           | Website:  www.openfoam.com                      |
|    \\/     M anipulation  |                                                 |
\*---------------------------------------------------------------------------*/
FoamFile
{
    version     2.0;
    format      ascii;
    arch        "LSB;label=32;scalar=64";
    class       volScalarField;
    location    "0.00862";
    object      alphat;
}
// * * * * * * * * * * * * * * * * * * * * * * * * * * * * * * * * * * * * * //

dimensions      [1 -1 -1 0 0 0 0];

internalField   nonuniform List<scalar> 
13875
(
0.11986
0.0816017
0.078452
0.0782784
0.0783345
0.0783766
0.0783063
0.0782586
0.0783002
0.0783296
0.0783127
0.0783126
0.0783781
0.078412
0.078394
0.0782975
0.078256
0.0782947
0.0783037
0.0783543
0.0783207
0.0782664
0.0784849
0.0814829
0.120935
0.103937
0.0576786
0.0570816
0.0571659
0.0566605
0.0566931
0.0570389
0.0571167
0.0571282
0.0571568
0.0571432
0.0571199
0.0566605
0.056614
0.0566674
0.0570971
0.0571185
0.0571523
0.0570738
0.0566796
0.0566746
0.057139
0.0570655
0.0573763
0.104508
0.110618
0.0553235
0.0558733
0.0547142
0.0545839
0.054487
0.0543349
0.0542831
0.0542304
0.0541584
0.0541306
0.0543454
0.0542517
0.0542781
0.0542411
0.0543492
0.0541082
0.054255
0.0542802
0.0544501
0.0545303
0.0546021
0.0557871
0.0550733
0.111143
0.115884
0.0546443
0.0553815
0.0543132
0.0540475
0.0539604
0.0537121
0.0535141
0.0534455
0.0534061
0.0533328
0.0534497
0.0537055
0.0537419
0.0536933
0.053484
0.053365
0.0534646
0.0536336
0.0539049
0.0539992
0.0542029
0.0551977
0.0542794
0.115833
0.12103
0.0546333
0.0551192
0.0537414
0.0536793
0.0535053
0.0532018
0.0530202
0.0529575
0.0529154
0.0528441
0.0529616
0.0532225
0.0532674
0.0532164
0.0529953
0.0528774
0.0529563
0.053109
0.0534736
0.0536072
0.0536126
0.0550222
0.0543196
0.121451
0.124407
0.0547431
0.0551856
0.053605
0.0533009
0.0531273
0.0527982
0.0525853
0.0525151
0.0524795
0.0524056
0.0525074
0.052779
0.052853
0.0527677
0.0525401
0.0524485
0.0525464
0.0527326
0.0530514
0.0532378
0.053505
0.0548862
0.0543885
0.124139
0.128745
0.0564726
0.0557818
0.0534494
0.0532747
0.0528884
0.0524256
0.0522333
0.0521343
0.052098
0.0520216
0.0521222
0.0524087
0.0524797
0.0523996
0.0521505
0.0520774
0.0521618
0.0523573
0.0528622
0.053194
0.0533641
0.0556452
0.05635
0.129015
0.135705
0.0611951
0.0578304
0.0544054
0.053407
0.0528513
0.0522736
0.0519731
0.0518501
0.051805
0.0517291
0.0517938
0.0521051
0.0521892
0.052086
0.0518238
0.0518066
0.0519226
0.0522175
0.052784
0.0533229
0.0542773
0.0575145
0.0610284
0.135585
0.15131
0.069246
0.0615374
0.0559114
0.0544109
0.0531456
0.0522405
0.0518768
0.0516987
0.0516342
0.0515598
0.051589
0.0519356
0.052031
0.051927
0.0516271
0.0516553
0.0518001
0.0521602
0.0530928
0.0542243
0.0556182
0.0610295
0.0684065
0.154147
0.239339
0.0874327
0.0664474
0.0589898
0.0553826
0.053705
0.0525053
0.0520103
0.0518034
0.0517099
0.0516452
0.0516339
0.0520005
0.0521143
0.0520086
0.0517208
0.0517666
0.0519456
0.0524369
0.0536033
0.055255
0.0586506
0.0660053
0.0866828
0.241132
0.365377
0.118399
0.075957
0.0629179
0.057572
0.0547837
0.0531451
0.0526005
0.0523105
0.0521854
0.0521279
0.052087
0.0524421
0.0525752
0.0525012
0.0522752
0.0523188
0.0525528
0.053033
0.0546144
0.0573225
0.061624
0.0748247
0.113021
0.365687
0.658172
0.19295
0.103993
0.0743805
0.0613235
0.0573663
0.0552088
0.0542161
0.0536924
0.0534843
0.0533905
0.0533336
0.0536216
0.0537849
0.0537756
0.0536847
0.0537706
0.0541698
0.0551234
0.0568193
0.0618853
0.0733827
0.100174
0.182915
0.643635
0.581892
0.435316
0.176286
0.0921625
0.0768472
0.0650539
0.0597846
0.057868
0.0569107
0.0565712
0.0564121
0.0563434
0.0565158
0.0567024
0.0568
0.0568827
0.0571443
0.0579487
0.0598598
0.0653162
0.0763281
0.0896977
0.172096
0.433633
0.581327
0.491313
0.4
0.346809
0.328248
0.116038
0.0807452
0.0735977
0.0676186
0.0650909
0.0643184
0.0639133
0.0637376
0.0637866
0.0639736
0.0642659
0.0647569
0.0656959
0.0683817
0.0749753
0.0830989
0.131162
0.328488
0.337481
0.401422
0.500143
0.408062
0.349309
0.329163
0.334032
0.302541
0.20038
0.127263
0.0945807
0.0864951
0.0859172
0.0853228
0.0850278
0.0850559
0.0852438
0.0857058
0.0866516
0.0875684
0.0953652
0.134089
0.213056
0.302291
0.330324
0.331347
0.360319
0.421771
0.329534
0.292993
0.281876
0.301021
0.31324
0.321558
0.243666
0.191952
0.171438
0.148353
0.136401
0.132378
0.130936
0.131679
0.134413
0.143252
0.171748
0.19547
0.249661
0.324212
0.307785
0.303897
0.291543
0.298443
0.341931
0.238917
0.227092
0.22536
0.264611
0.319131
0.400996
0.529772
0.5649
0.538449
0.537544
0.55699
0.570043
0.577044
0.573414
0.560087
0.549755
0.539015
0.568173
0.532186
0.396387
0.314149
0.266795
0.230351
0.234522
0.25198
0.140296
0.152237
0.185582
0.227289
0.311408
0.43186
0.56454
0.61594
0.560383
0.513018
0.495422
0.492015
0.494496
0.4933
0.498624
0.530038
0.566063
0.606376
0.565778
0.437956
0.310689
0.229279
0.177375
0.142999
0.131185
0.0684004
0.102832
0.164696
0.250206
0.348843
0.407864
0.474791
0.53356
0.499714
0.453553
0.433737
0.430739
0.432344
0.435252
0.441538
0.462904
0.496842
0.527501
0.488206
0.427448
0.37273
0.265535
0.1682
0.104588
0.0703975
0.0266285
0.0523149
0.113154
0.229898
0.345881
0.362188
0.385739
0.427046
0.424553
0.402751
0.390576
0.385124
0.382569
0.390457
0.398574
0.406204
0.414632
0.414618
0.389329
0.377845
0.363629
0.228677
0.111942
0.0519387
0.0258979
0.0784784
0.0874753
0.114209
0.18647
0.275019
0.285779
0.307867
0.351706
0.369411
0.361384
0.349571
0.338678
0.333388
0.344706
0.35692
0.361974
0.357289
0.337988
0.307431
0.295736
0.283095
0.185986
0.113097
0.0886856
0.0840405
0.124011
0.151271
0.127718
0.156148
0.206883
0.224729
0.252449
0.298309
0.322317
0.320271
0.308493
0.29469
0.2879
0.300544
0.31525
0.320016
0.310539
0.285422
0.247816
0.230085
0.210612
0.153858
0.124947
0.148759
0.12511
0.169261
0.161236
0.131956
0.133725
0.163702
0.181056
0.211801
0.255915
0.280884
0.28111
0.268874
0.254059
0.247204
0.258716
0.27401
0.279293
0.268955
0.245927
0.206012
0.18348
0.165623
0.13436
0.129267
0.160444
0.171373
0.209171
0.192775
0.133574
0.123376
0.138388
0.154686
0.180302
0.219942
0.242584
0.244338
0.232357
0.218526
0.212225
0.22286
0.237184
0.242611
0.231871
0.210772
0.175969
0.155245
0.139387
0.123891
0.132271
0.201883
0.205602
0.229862
0.230696
0.136864
0.119211
0.122528
0.134993
0.156605
0.188793
0.208611
0.210517
0.200334
0.187672
0.182535
0.191716
0.205308
0.210163
0.199913
0.181573
0.153706
0.134392
0.122735
0.12129
0.136993
0.242241
0.226994
0.252236
0.259976
0.137503
0.115786
0.111941
0.121049
0.13849
0.164412
0.180253
0.182148
0.173588
0.162426
0.157604
0.165781
0.177452
0.181446
0.172986
0.157616
0.135781
0.120691
0.112505
0.117211
0.138402
0.269829
0.250288
0.280281
0.274999
0.138771
0.112693
0.105491
0.109768
0.124154
0.143589
0.156101
0.156983
0.14989
0.140345
0.13668
0.143543
0.153811
0.157033
0.150003
0.138049
0.121332
0.108593
0.106336
0.114066
0.141653
0.290449
0.275288
0.309064
0.292966
0.13858
0.108107
0.100313
0.101646
0.112487
0.126899
0.135599
0.136154
0.130363
0.122543
0.119137
0.125389
0.134088
0.137228
0.13216
0.122377
0.109965
0.100827
0.10152
0.109688
0.142339
0.306783
0.303883
0.339733
0.322303
0.143356
0.105875
0.0977352
0.0950765
0.102686
0.112662
0.119406
0.119061
0.114066
0.107114
0.104406
0.10935
0.116704
0.119224
0.115655
0.108998
0.100446
0.0941974
0.0984594
0.106515
0.144291
0.320522
0.333537
0.367755
0.33678
0.143734
0.101777
0.0933331
0.0905791
0.095246
0.101492
0.105175
0.104399
0.100174
0.0945901
0.0919896
0.0966931
0.102874
0.105423
0.10316
0.0978863
0.0926633
0.088668
0.093914
0.102974
0.145809
0.339082
0.359027
0.382186
0.342072
0.149346
0.100981
0.0910466
0.086217
0.0889445
0.0909818
0.0933596
0.0920176
0.0885083
0.0835494
0.0815519
0.0853765
0.0909146
0.0929913
0.0919089
0.0890466
0.0868708
0.0849243
0.090781
0.101183
0.148882
0.343827
0.383367
0.391794
0.341544
0.153402
0.0992946
0.0864087
0.0814403
0.0834563
0.0837569
0.0841793
0.0824516
0.079121
0.0748881
0.0727473
0.0763429
0.080975
0.0832204
0.0830404
0.0812622
0.081556
0.0795316
0.085851
0.0996913
0.151473
0.341674
0.396147
0.410258
0.336054
0.158988
0.100596
0.0844178
0.0779809
0.0790256
0.0763856
0.0758918
0.0737319
0.0708702
0.0669489
0.065351
0.0683182
0.0727112
0.0745768
0.0752548
0.0750139
0.0771612
0.0764813
0.0831203
0.0997346
0.158158
0.342381
0.408587
0.417634
0.329515
0.163393
0.100982
0.0807707
0.0741606
0.0735422
0.0707931
0.0691089
0.0668371
0.064097
0.0607887
0.0590712
0.0619608
0.0657244
0.0680182
0.0691214
0.0693943
0.0721932
0.0721569
0.079819
0.100328
0.163516
0.334322
0.421343
0.424944
0.327754
0.164037
0.104217
0.0808143
0.0720095
0.0697836
0.0655027
0.0633607
0.0606305
0.0582799
0.0550477
0.0537466
0.0560721
0.0596625
0.0614063
0.0633517
0.064666
0.0684878
0.0703102
0.0785185
0.101704
0.166858
0.334099
0.430326
0.430296
0.319679
0.161877
0.105832
0.0804906
0.0686162
0.06512
0.0609588
0.0585406
0.0558126
0.0533314
0.050604
0.049207
0.0515538
0.0546586
0.0569657
0.0587112
0.059821
0.0642276
0.0673908
0.0784128
0.104745
0.16502
0.331981
0.432692
0.435722
0.321226
0.16166
0.111347
0.0826409
0.067443
0.0624912
0.0565227
0.054073
0.0511141
0.0490346
0.0463423
0.0452802
0.0471767
0.0502656
0.0519838
0.0546127
0.0561506
0.0616668
0.0658952
0.0800624
0.108759
0.164548
0.330978
0.43794
0.432388
0.319273
0.15927
0.119052
0.084281
0.0655752
0.0588532
0.0529606
0.0503904
0.0477996
0.0454938
0.0431638
0.0419327
0.0438413
0.0465796
0.0487308
0.0506586
0.0520306
0.058063
0.0641314
0.081084
0.116093
0.159631
0.329703
0.438022
0.428556
0.317947
0.155433
0.122102
0.0877675
0.0666903
0.0572429
0.0498353
0.0470187
0.0440819
0.042246
0.0399331
0.0390289
0.0405994
0.0432802
0.0447667
0.0476675
0.0495102
0.0561152
0.0648347
0.0853642
0.121687
0.157116
0.328347
0.430572
0.418986
0.318455
0.14861
0.122014
0.0927376
0.0667401
0.0547573
0.047047
0.0440943
0.0416358
0.0395893
0.0375888
0.0364989
0.0381566
0.0405679
0.0425027
0.0445792
0.0465552
0.0540108
0.0649721
0.0884485
0.121596
0.149502
0.321129
0.422807
0.408015
0.318764
0.144381
0.121774
0.101396
0.0696905
0.0550113
0.0453489
0.0418958
0.0387687
0.0370995
0.0350631
0.0342904
0.0355986
0.0379427
0.0392539
0.0424798
0.0450596
0.0537326
0.0671576
0.0962484
0.121024
0.145283
0.324043
0.415291
0.403206
0.316439
0.139177
0.119483
0.107271
0.0714022
0.0542681
0.0440507
0.0398389
0.0370869
0.0350849
0.0332776
0.0323278
0.0338013
0.0359522
0.0377491
0.0402682
0.0434456
0.0535705
0.0693516
0.107471
0.120093
0.141979
0.32149
0.407154
0.394445
0.317774
0.137295
0.115909
0.107493
0.077015
0.0555509
0.0440372
0.0387576
0.0348675
0.0331287
0.0312731
0.0306058
0.031745
0.0338944
0.0352802
0.0393613
0.0434651
0.0541978
0.0739967
0.10772
0.116819
0.140629
0.326672
0.400299
0.38561
0.313326
0.136744
0.11083
0.106306
0.0851579
0.0568975
0.0438775
0.0378395
0.0339543
0.0317018
0.0299556
0.0290632
0.0303483
0.0324124
0.0343117
0.0379356
0.043156
0.0555446
0.0812171
0.106808
0.112137
0.140501
0.325395
0.390206
0.37924
0.310558
0.135206
0.106301
0.103522
0.0925941
0.0611349
0.0447005
0.0380744
0.0326792
0.0303024
0.0283663
0.0277217
0.0287408
0.030888
0.0327013
0.0383675
0.0441829
0.0594696
0.0930493
0.104708
0.108323
0.14291
0.321502
0.378622
0.372263
0.308813
0.135878
0.102735
0.0987989
0.0922678
0.0678404
0.0459519
0.0377739
0.0327613
0.0295892
0.0275103
0.0265888
0.0278127
0.0301259
0.0327384
0.0378253
0.0452175
0.0656447
0.0928148
0.100765
0.104837
0.141592
0.314104
0.372923
0.360159
0.302305
0.137433
0.100371
0.094235
0.091183
0.0787648
0.0499646
0.0389513
0.0324643
0.0291676
0.0266229
0.0257455
0.0268469
0.0295645
0.0322568
0.0388926
0.0486051
0.0756118
0.0919443
0.0961802
0.101907
0.140192
0.309848
0.364004
0.350465
0.297999
0.136483
0.0983451
0.090527
0.0884291
0.0789614
0.056174
0.0398513
0.0328754
0.029244
0.02663
0.0251545
0.0267964
0.0297125
0.0328426
0.0396235
0.0547728
0.0783315
0.0890945
0.0920585
0.0997109
0.140008
0.303863
0.351574
0.324369
0.286519
0.135676
0.0972624
0.0877092
0.084597
0.078156
0.0656799
0.0437535
0.0331961
0.0292438
0.0263747
0.0251606
0.026538
0.0296001
0.0329249
0.0435685
0.0640746
0.0780677
0.0854116
0.0884715
0.0977536
0.138599
0.29354
0.325231
0.294355
0.267848
0.131633
0.0957595
0.0852942
0.0804131
0.0765222
0.0677921
0.0491082
0.035633
0.029841
0.0267677
0.0252453
0.0268841
0.0301715
0.0351048
0.0487758
0.0682328
0.0766175
0.0804077
0.0853769
0.0959187
0.134116
0.275975
0.296432
0.107359
0.517618
0.68222
0.786593
0.785164
0.818371
0.817138
0.820506
0.757601
0.676222
0.597243
0.528209
0.471377
0.434973
0.415568
0.407906
0.409673
0.411047
0.409734
0.406293
0.401086
0.390942
0.374467
0.356958
0.336935
0.314854
0.285335
0.248955
0.192903
0.117307
0.104544
0.536913
0.685292
0.771972
0.75586
0.787578
0.795642
0.80561
0.756088
0.6832
0.607115
0.53729
0.477597
0.436248
0.413307
0.401873
0.398231
0.394292
0.391888
0.387478
0.379836
0.369938
0.356867
0.339967
0.321387
0.30018
0.274194
0.239851
0.186241
0.114875
0.119047
0.603816
0.727966
0.792344
0.778025
0.802289
0.809286
0.812793
0.759648
0.683931
0.607568
0.540584
0.480283
0.436203
0.408509
0.394208
0.386206
0.38222
0.379601
0.373805
0.366121
0.35634
0.345075
0.32855
0.311725
0.291298
0.267843
0.234248
0.181537
0.113249
0.134179
0.640837
0.755634
0.794416
0.780932
0.800677
0.80776
0.805837
0.757165
0.685594
0.612451
0.54491
0.484693
0.437288
0.40449
0.386661
0.374823
0.369911
0.364226
0.357727
0.350364
0.341237
0.330217
0.316794
0.301026
0.282833
0.261349
0.228653
0.177136
0.111871
0.143767
0.67342
0.78899
0.813916
0.802578
0.816663
0.825977
0.812893
0.761249
0.687881
0.61818
0.550669
0.489411
0.438174
0.401062
0.378767
0.366217
0.358864
0.351323
0.345079
0.337957
0.329583
0.319746
0.308758
0.29441
0.277373
0.256358
0.224154
0.173443
0.111346
0.152634
0.710108
0.82594
0.841099
0.829773
0.84306
0.850809
0.838134
0.779882
0.698234
0.628398
0.560685
0.497013
0.441849
0.400405
0.372576
0.357478
0.347219
0.3395
0.333003
0.326525
0.319274
0.310847
0.302406
0.288496
0.271823
0.251265
0.21953
0.169707
0.10976
0.160564
0.747806
0.86744
0.877163
0.866557
0.874476
0.881364
0.868438
0.807625
0.722164
0.646084
0.575139
0.507874
0.448616
0.401949
0.370132
0.351042
0.338254
0.330766
0.324325
0.318118
0.312035
0.304976
0.296533
0.284668
0.268611
0.24778
0.216352
0.167184
0.109587
0.169041
0.78528
0.914379
0.916892
0.904472
0.906525
0.911316
0.898904
0.836336
0.751281
0.673422
0.597567
0.525043
0.460235
0.407632
0.370191
0.34665
0.33177
0.323159
0.316965
0.311459
0.305765
0.299323
0.29081
0.279443
0.265228
0.244739
0.213559
0.165217
0.108936
0.17738
0.82216
0.958861
0.952118
0.93265
0.934261
0.935971
0.928077
0.862694
0.781564
0.704783
0.627247
0.54856
0.476923
0.417659
0.374225
0.346361
0.329353
0.319471
0.312554
0.307039
0.301949
0.295556
0.28675
0.275544
0.261539
0.242535
0.212018
0.164124
0.109246
0.18395
0.858415
0.997082
0.980959
0.957049
0.955086
0.955671
0.952491
0.886789
0.811709
0.738648
0.661176
0.57877
0.499965
0.432669
0.382466
0.34943
0.329191
0.317341
0.309227
0.303399
0.298351
0.291578
0.282706
0.271506
0.257807
0.239094
0.210081
0.16274
0.109128
0.189033
0.889017
1.02634
1.00771
0.978343
0.9712
0.97004
0.971752
0.906032
0.841261
0.774098
0.698297
0.614964
0.530252
0.454171
0.396527
0.356399
0.33204
0.317572
0.308288
0.302381
0.296645
0.289356
0.280681
0.270178
0.255427
0.236907
0.208116
0.161307
0.108828
0.19306
0.910191
1.05329
1.03338
0.997307
0.985008
0.982326
0.977695
0.920396
0.867296
0.809617
0.739174
0.6564
0.567501
0.483243
0.415216
0.367051
0.33712
0.31931
0.308598
0.301513
0.294827
0.288247
0.278962
0.268042
0.253232
0.234194
0.205015
0.159542
0.109336
0.196988
0.92765
1.07894
1.05582
1.01391
0.997209
0.994073
0.973744
0.931135
0.888846
0.844188
0.782945
0.703867
0.61172
0.519766
0.440783
0.382236
0.345233
0.323329
0.310564
0.301956
0.294402
0.287724
0.277989
0.266093
0.252014
0.232087
0.202173
0.157378
0.108913
0.199726
0.94481
1.10115
1.07446
1.02831
1.00838
1.0045
0.96599
0.936988
0.908006
0.877839
0.82686
0.754724
0.663341
0.564691
0.47436
0.403606
0.35742
0.330029
0.31389
0.302936
0.293899
0.286075
0.275699
0.264119
0.249997
0.22957
0.199503
0.155174
0.108257
0.200833
0.958913
1.11848
1.08636
1.03616
1.01215
1.00652
0.959967
0.939631
0.92387
0.908327
0.869623
0.806515
0.719659
0.617993
0.517187
0.433272
0.375508
0.34006
0.318858
0.304733
0.293283
0.284031
0.274036
0.262566
0.248475
0.227874
0.19757
0.153554
0.107864
0.20171
0.966185
1.12983
1.09097
1.03869
1.01089
0.996179
0.954735
0.940671
0.936409
0.93323
0.908304
0.857733
0.779467
0.678873
0.570417
0.473678
0.402191
0.354808
0.326235
0.307074
0.292955
0.282379
0.272558
0.260875
0.24645
0.225999
0.195629
0.15212
0.107716
0.200928
0.968099
1.13476
1.08733
1.03519
1.00594
0.982739
0.945603
0.939574
0.943737
0.949842
0.938567
0.903678
0.839511
0.745526
0.634952
0.527251
0.438312
0.37632
0.336385
0.311354
0.294286
0.282186
0.272067
0.260116
0.24454
0.225249
0.193936
0.150117
0.107599
0.199289
0.965597
1.1323
1.0811
1.02859
0.998346
0.964663
0.934456
0.93554
0.946588
0.958719
0.959861
0.943299
0.89551
0.813554
0.707383
0.591001
0.485167
0.404801
0.35102
0.317906
0.297132
0.282874
0.271711
0.259356
0.243639
0.223357
0.192501
0.148919
0.107692
0.196612
0.948343
1.11709
1.06853
1.01855
0.991545
0.945772
0.921787
0.929353
0.946442
0.963069
0.973932
0.974109
0.944266
0.879556
0.782985
0.664183
0.544712
0.443163
0.371369
0.327234
0.301947
0.284455
0.272134
0.25957
0.243999
0.222472
0.191052
0.147716
0.107306
0.194022
0.929316
1.09427
1.04905
1.00192
0.980871
0.929999
0.910795
0.92048
0.943305
0.963438
0.980997
0.996398
0.985053
0.939859
0.85747
0.742963
0.613969
0.492519
0.399671
0.342598
0.309036
0.287378
0.27306
0.260371
0.245938
0.222748
0.190173
0.146623
0.106874
0.18841
0.894174
1.05028
1.01859
0.979841
0.963547
0.919158
0.902816
0.912761
0.93738
0.96196
0.985346
1.01224
1.01705
0.991923
0.926369
0.821489
0.689644
0.553766
0.440531
0.363551
0.319395
0.291647
0.274229
0.262168
0.24542
0.222166
0.189005
0.145505
0.106445
0.184411
0.857108
0.999477
0.980102
0.954848
0.942898
0.907921
0.896197
0.907163
0.93162
0.960602
0.990463
1.02251
1.04051
1.02961
0.978555
0.885738
0.761712
0.621379
0.490676
0.393908
0.334201
0.298158
0.277911
0.262072
0.244652
0.221024
0.18787
0.144114
0.106616
0.176702
0.799893
0.931042
0.931588
0.925764
0.917846
0.897232
0.892124
0.905917
0.928941
0.958106
0.990938
1.02133
1.04416
1.04397
1.00793
0.933207
0.828311
0.692694
0.5527
0.435878
0.3562
0.310597
0.28201
0.26278
0.244188
0.219986
0.186705
0.143082
0.106355
0.172889
0.725879
0.844443
0.869643
0.892262
0.893223
0.887234
0.889874
0.906356
0.928666
0.953784
0.982732
1.00264
1.02142
1.04146
1.02805
0.976448
0.890992
0.768861
0.626377
0.490818
0.389276
0.325908
0.288999
0.265185
0.244419
0.219239
0.185517
0.141844
0.105956
0.152254
0.552512
0.709185
0.7911
0.853362
0.868729
0.877647
0.888144
0.907591
0.929339
0.952953
0.973798
0.991715
1.01116
1.04215
1.04429
1.01567
0.949544
0.844475
0.707128
0.558168
0.433164
0.349003
0.299329
0.268934
0.245164
0.218358
0.18358
0.139931
0.105347
0.115619
0.189746
0.245077
0.2808
0.307711
0.330899
0.351321
0.368866
0.383982
0.394531
0.401031
0.404848
0.40477
0.401793
0.403029
0.412152
0.436353
0.477881
0.53849
0.615397
0.702239
0.785403
0.839425
0.831394
0.833434
0.803415
0.804459
0.69827
0.532411
0.109655
0.113258
0.18327
0.236243
0.270123
0.295058
0.316765
0.335349
0.350944
0.364371
0.375067
0.382124
0.386799
0.390055
0.392433
0.396953
0.41116
0.437914
0.484051
0.55116
0.626548
0.705163
0.774145
0.814726
0.802277
0.796592
0.768317
0.786038
0.700518
0.551107
0.106314
0.111698
0.178699
0.230783
0.263989
0.287767
0.307475
0.324833
0.339321
0.351822
0.36116
0.368621
0.373568
0.378568
0.383266
0.389994
0.408136
0.4394
0.488086
0.551379
0.623787
0.703088
0.773962
0.818842
0.816645
0.809669
0.789715
0.80535
0.743255
0.61793
0.120854
0.110478
0.174699
0.225614
0.25792
0.28043
0.298147
0.313041
0.326649
0.339388
0.347758
0.353323
0.358643
0.365895
0.373772
0.383729
0.405762
0.441613
0.492552
0.555469
0.625788
0.700528
0.768264
0.808156
0.812996
0.806378
0.791017
0.806037
0.769904
0.652709
0.136081
0.11016
0.171404
0.221512
0.253326
0.275379
0.292001
0.305798
0.319074
0.328329
0.336027
0.341945
0.347717
0.354896
0.364
0.376882
0.403137
0.442796
0.496638
0.559346
0.628058
0.699163
0.77279
0.819072
0.831356
0.823897
0.812605
0.825835
0.803413
0.684119
0.145294
0.10877
0.16804
0.217329
0.248685
0.27018
0.28602
0.299036
0.309555
0.317796
0.324961
0.330769
0.336306
0.343046
0.355857
0.373136
0.402506
0.445917
0.502669
0.566779
0.63515
0.711175
0.79592
0.849052
0.861844
0.851833
0.840518
0.853906
0.841251
0.719958
0.153872
0.108698
0.165877
0.214603
0.245633
0.266695
0.282251
0.294558
0.303118
0.31033
0.317166
0.322285
0.32743
0.334828
0.350037
0.371811
0.404653
0.452612
0.512693
0.579796
0.654288
0.735731
0.824251
0.881731
0.894891
0.887205
0.878174
0.890604
0.883755
0.756551
0.161687
0.108083
0.16413
0.212136
0.242695
0.262982
0.277934
0.289664
0.298745
0.303881
0.310011
0.315177
0.320783
0.329211
0.345636
0.371008
0.409964
0.463342
0.528496
0.603614
0.682028
0.763628
0.850383
0.909616
0.92193
0.918028
0.91476
0.93071
0.930223
0.793325
0.169646
0.108127
0.162879
0.210448
0.240636
0.260225
0.274614
0.286385
0.294474
0.300066
0.305301
0.310925
0.317215
0.327204
0.345357
0.374761
0.418929
0.478201
0.55157
0.632316
0.712203
0.790782
0.872376
0.93519
0.9459
0.943314
0.942317
0.965184
0.975615
0.82933
0.177707
0.107818
0.160864
0.207878
0.237854
0.256801
0.271211
0.282859
0.290246
0.296057
0.301223
0.307403
0.315147
0.327174
0.348191
0.3826
0.433078
0.500991
0.581058
0.664304
0.74321
0.817548
0.892214
0.957366
0.96441
0.963235
0.966036
0.993447
1.0095
0.86574
0.183973
0.107291
0.158528
0.204946
0.234974
0.254274
0.268954
0.279685
0.287045
0.293417
0.29877
0.306065
0.315239
0.329901
0.354707
0.394701
0.453736
0.530145
0.615512
0.69961
0.775425
0.845098
0.908948
0.975728
0.978702
0.978493
0.987396
1.0206
1.03961
0.893415
0.188696
0.107191
0.15667
0.201988
0.231865
0.251943
0.266446
0.276429
0.284195
0.291424
0.29761
0.306304
0.316906
0.334658
0.364394
0.412001
0.480351
0.564624
0.654131
0.738416
0.810292
0.869907
0.923534
0.98431
0.987784
0.990796
1.00617
1.04686
1.06674
0.912738
0.19278
0.10736
0.155721
0.200293
0.230251
0.250621
0.264974
0.275521
0.284274
0.290988
0.298568
0.308416
0.321026
0.342376
0.378328
0.435217
0.51309
0.604684
0.698037
0.779412
0.844301
0.889187
0.932264
0.977087
0.995704
1.0011
1.02194
1.06871
1.09179
0.929489
0.196457
0.10705
0.154003
0.198288
0.228472
0.248895
0.264468
0.274623
0.284085
0.291687
0.301452
0.312006
0.327634
0.353935
0.398064
0.466043
0.553858
0.652431
0.745959
0.821244
0.875569
0.907215
0.934581
0.966203
1.00421
1.01078
1.03574
1.08684
1.11343
0.94642
0.198947
0.107005
0.152641
0.196748
0.227126
0.247435
0.262474
0.273387
0.282975
0.292128
0.303206
0.318127
0.337175
0.370675
0.425786
0.506309
0.603855
0.706045
0.795743
0.86197
0.903667
0.920811
0.936663
0.958146
1.00719
1.01568
1.04478
1.0989
1.13051
0.959343
0.199944
0.10712
0.151341
0.194797
0.224945
0.245356
0.260061
0.271819
0.281672
0.292401
0.305457
0.324149
0.352082
0.39484
0.463751
0.557103
0.663021
0.764035
0.845617
0.899094
0.926686
0.931245
0.936606
0.952396
0.999109
1.01412
1.04775
1.10228
1.13919
0.966946
0.200736
0.107171
0.150178
0.192985
0.222806
0.243398
0.258727
0.271655
0.281404
0.294067
0.309063
0.333089
0.371274
0.430328
0.514238
0.619264
0.72914
0.823243
0.891252
0.92956
0.942664
0.93761
0.935165
0.943781
0.982818
1.00774
1.04311
1.09757
1.14197
0.969485
0.199724
0.106597
0.148643
0.1924
0.221769
0.242563
0.258851
0.271644
0.282708
0.2966
0.315475
0.345062
0.397567
0.47682
0.576641
0.690781
0.798009
0.880687
0.9325
0.952143
0.952104
0.940456
0.930818
0.931878
0.965247
0.998043
1.03391
1.08943
1.13897
0.96782
0.198121
0.106183
0.146989
0.191083
0.223693
0.244651
0.259299
0.272378
0.284739
0.301413
0.326384
0.365376
0.433373
0.531857
0.649665
0.766792
0.865227
0.93253
0.965691
0.96795
0.957435
0.941143
0.925289
0.919188
0.944989
0.989951
1.02265
1.0758
1.12397
0.951445
0.195904
0.105936
0.146249
0.190237
0.223759
0.246746
0.261187
0.273972
0.287916
0.308742
0.340512
0.394835
0.481644
0.59808
0.727093
0.842189
0.927219
0.976724
0.990515
0.977233
0.958709
0.939214
0.91683
0.907864
0.928099
0.979797
1.00676
1.05654
1.10069
0.932848
0.193309
0.106223
0.146096
0.18981
0.223424
0.24703
0.2622
0.27758
0.292577
0.318865
0.361229
0.432966
0.541412
0.674223
0.806456
0.912759
0.981025
1.01055
1.00761
0.98241
0.958084
0.934712
0.909982
0.900411
0.917476
0.962847
0.984566
1.02734
1.05796
0.898353
0.187741
0.106022
0.145518
0.189356
0.222619
0.246742
0.264041
0.279786
0.299449
0.33352
0.390859
0.483028
0.608599
0.749715
0.877244
0.971353
1.02406
1.03593
1.01924
0.987346
0.957854
0.93016
0.905731
0.895455
0.908092
0.943432
0.959922
0.989877
1.00853
0.861359
0.183626
0.105494
0.144208
0.18837
0.221822
0.246567
0.265291
0.283206
0.309911
0.354845
0.431377
0.544532
0.679866
0.815235
0.925662
1.00236
1.04078
1.04382
1.01931
0.988151
0.956704
0.927411
0.904659
0.892277
0.89885
0.921347
0.931899
0.94291
0.940436
0.803774
0.175704
0.105313
0.1423
0.187116
0.221144
0.246349
0.267267
0.290094
0.326752
0.386558
0.484861
0.617207
0.756258
0.878486
0.968335
1.02315
1.04046
1.02532
1.00508
0.981793
0.953892
0.926756
0.905257
0.891125
0.890346
0.898111
0.900019
0.881094
0.854671
0.729608
0.171639
0.10493
0.140797
0.185192
0.219878
0.246178
0.270242
0.299747
0.348289
0.429066
0.550887
0.696836
0.831961
0.937471
1.00659
1.03796
1.03518
1.00767
0.988676
0.972086
0.951451
0.928315
0.907552
0.890551
0.881837
0.874957
0.862105
0.802996
0.719354
0.554498
0.151048
0.350748
0.352584
0.346797
0.344009
0.343121
0.343341
0.348362
0.357625
0.370406
0.385782
0.403237
0.422391
0.442247
0.461761
0.480205
0.497063
0.512148
0.525444
0.537208
0.547724
0.557216
0.565733
0.573226
0.579673
0.58505
0.58937
0.592945
0.59583
0.59831
0.600126
0.601239
0.601634
0.601319
0.600326
0.598716
0.596537
0.593758
0.590335
0.586394
0.581821
0.576726
0.571108
0.565011
0.558441
0.551421
0.54408
0.53625
0.52781
0.519321
0.510901
0.502296
0.493437
0.484466
0.475206
0.465842
0.456483
0.447013
0.437456
0.427792
0.417935
0.407869
0.397555
0.386891
0.375841
0.364431
0.352684
0.340652
0.328352
0.315804
0.302987
0.289856
0.276376
0.262525
0.248369
0.233996
0.21961
0.20535
0.191431
0.177991
0.165239
0.153393
0.142599
0.132944
0.124502
0.117204
0.111061
0.105924
0.101693
0.0982394
0.095391
0.0930725
0.0911439
0.0895326
0.0881684
0.0870427
0.0860577
0.0853066
0.0846107
0.084108
0.0838498
0.083871
0.084026
0.0843032
0.0848125
0.0853787
0.0858892
0.0864318
0.0871121
0.0880061
0.0891761
0.0909095
0.0917514
0.0923382
0.0931893
0.0946104
0.0969483
0.0991303
0.100424
0.101551
0.102313
0.102886
0.103846
0.104546
0.10467
0.10479
2.66137
2.71041
2.73765
2.77625
2.82198
2.90773
3.03434
3.19642
3.38842
3.60348
3.83135
4.05801
4.27537
4.48055
4.67315
4.85216
5.01387
5.15683
5.28116
5.38795
5.47758
5.55137
5.61018
5.6561
5.68408
5.70055
5.71198
5.71577
5.71195
5.70128
5.68449
5.6621
5.63444
5.60192
5.56501
5.52409
5.47943
5.43008
5.3767
5.32165
5.26367
5.2031
5.14026
5.07529
5.00819
4.93925
4.86834
4.79378
4.71052
4.61907
4.52211
4.42113
4.3168
4.21361
4.10751
3.998
3.88619
3.77334
3.65881
3.54334
3.42706
3.30995
3.19298
3.07689
2.96155
2.84701
2.7336
2.62111
2.50977
2.39947
2.28966
2.18004
2.07012
1.95932
1.84754
1.73498
1.62169
1.50778
1.39318
1.27803
1.16305
1.04914
0.937967
0.832124
0.733454
0.643695
0.56348
0.493333
0.432882
0.38147
0.338102
0.301689
0.271261
0.245829
0.224726
0.207065
0.192374
0.180032
0.169762
0.161257
0.154312
0.14859
0.144002
0.14039
0.137327
0.134715
0.132613
0.131026
0.130169
0.130146
0.131238
0.130272
0.129263
0.129122
0.130045
0.132987
0.1344
0.135066
0.135944
0.136746
0.137806
0.138963
0.13954
0.139742
0.140013
4.61834
4.67315
4.72049
4.77395
4.8477
4.97274
5.14044
5.34727
5.58922
5.85858
6.14619
6.44175
6.73656
7.02224
7.29124
7.54097
7.77247
7.98273
8.16908
8.33061
8.46703
8.57814
8.66783
8.72656
8.76472
8.78875
8.80243
8.80171
8.7888
8.7649
8.73112
8.68819
8.63662
8.57693
8.50977
8.43577
8.35562
8.26971
8.17829
8.08223
7.98182
7.87738
7.76926
7.6575
7.54007
7.41988
7.29707
7.16986
7.03701
6.89803
6.75282
6.60086
6.44196
6.2733
6.10031
5.92494
5.74735
5.57439
5.40122
5.22582
5.04868
4.87036
4.69054
4.5088
4.32587
4.14229
3.96068
3.78212
3.60589
3.43187
3.26071
3.09351
2.93047
2.77189
2.61776
2.46792
2.32299
2.18323
2.0488
1.9199
1.79687
1.67972
1.56817
1.4609
1.35711
1.25636
1.1585
1.06337
0.971288
0.882738
0.798653
0.719807
0.646934
0.580485
0.520926
0.468011
0.421775
0.381642
0.34734
0.317993
0.293434
0.272458
0.254966
0.240838
0.228508
0.218261
0.20986
0.203261
0.19841
0.194855
0.192037
0.187769
0.1842
0.182264
0.182734
0.185699
0.185729
0.184921
0.184901
0.185244
0.185408
0.184973
0.184286
0.183856
0.184057
5.99754
6.05874
6.12225
6.19951
6.31516
6.47642
6.67756
6.91707
7.18956
7.48642
7.7976
8.11313
8.4231
8.72112
8.99977
9.25568
9.48738
9.69532
9.87942
10.0378
10.1691
10.2763
10.3493
10.3951
10.4218
10.4354
10.4342
10.4168
10.3862
10.3438
10.2908
10.2278
10.1555
10.0747
9.98595
9.88999
9.78749
9.67945
9.56607
9.44794
9.32539
9.19869
9.06802
8.93341
8.79459
8.65159
8.50458
8.35335
8.1976
8.03714
7.86987
7.69818
7.52496
7.34767
7.16624
6.97987
6.78754
6.58384
6.376
6.16605
5.95523
5.74656
5.54405
5.34306
5.14281
4.94371
4.74366
4.5426
4.34229
4.14417
3.94886
3.75669
3.56867
3.38452
3.20474
3.0323
2.86736
2.71008
2.56063
2.41844
2.28309
2.15491
2.03298
1.91706
1.80698
1.70272
1.60367
1.51057
1.4212
1.33669
1.25618
1.17772
1.10074
1.02501
0.950763
0.878264
0.807708
0.739683
0.675767
0.616209
0.562134
0.513479
0.469674
0.431598
0.397295
0.367184
0.341983
0.321117
0.304073
0.289569
0.276361