/*--------------------------------*- C++ -*----------------------------------*\
| =========                 |                                                 |
| \\      /  F ield         | OpenFOAM: The Open Source CFD Toolbox           |
|  \\    /   O peration     | Version:  2112                                  |
|   \\  /    A nd           | Website:  www.openfoam.com                      |
|    \\/     M anipulation  |                                                 |
\*---------------------------------------------------------------------------*/
FoamFile
{
    version     2.0;
    format      ascii;
    arch        "LSB;label=32;scalar=64";
    class       volScalarField;
    location    "0.00464";
    object      alphat;
}
// * * * * * * * * * * * * * * * * * * * * * * * * * * * * * * * * * * * * * //

dimensions      [1 -1 -1 0 0 0 0];

internalField   nonuniform List<scalar> 
13875
(
0.119858
0.081605
0.0784615
0.078278
0.0782687
0.0783692
0.0783909
0.078348
0.078258
0.0782625
0.0783187
0.0783273
0.0783756
0.0784023
0.0783981
0.0782865
0.0782264
0.0782904
0.0783348
0.078373
0.0782854
0.0782577
0.0784886
0.0814708
0.120886
0.103941
0.0576826
0.0570949
0.0571695
0.0566611
0.0565684
0.0565713
0.056656
0.0570395
0.0571745
0.0572059
0.0570848
0.0566601
0.0566248
0.0566757
0.0570762
0.0570574
0.0570519
0.0566799
0.0565841
0.0566322
0.0571361
0.0570779
0.0573394
0.104539
0.110623
0.055328
0.0558844
0.054698
0.0544542
0.0543127
0.054247
0.054241
0.0540909
0.0541825
0.0542241
0.0540794
0.0542594
0.0542885
0.0542536
0.0543406
0.0540345
0.0542756
0.0543438
0.0543878
0.0544455
0.0545633
0.055771
0.0550702
0.111332
0.115891
0.0546483
0.0553884
0.0542883
0.0539008
0.0537732
0.0537066
0.0537011
0.0534508
0.0534134
0.0534055
0.0534192
0.0537205
0.0537537
0.05371
0.0535415
0.0533647
0.0535776
0.053811
0.0538543
0.0539122
0.0541659
0.0551858
0.0543052
0.115909
0.121039
0.0546365
0.0551265
0.0537175
0.0535587
0.0533597
0.0532447
0.0532232
0.0529694
0.0529289
0.0529214
0.0529395
0.0532437
0.0532817
0.0532334
0.0530565
0.0528838
0.0530662
0.0533287
0.0534135
0.0535322
0.0535718
0.0550029
0.0543294
0.1214
0.124415
0.0547457
0.0551881
0.0535719
0.0531653
0.0529539
0.0528485
0.0528177
0.0525604
0.0525037
0.052497
0.0525319
0.0528285
0.0528752
0.0528106
0.0526067
0.0524731
0.0526613
0.0529405
0.0530353
0.0531627
0.0534675
0.0548738
0.0543958
0.124011
0.128751
0.0564725
0.0557815
0.0534191
0.0531598
0.0527953
0.0525907
0.0525036
0.0522274
0.0521536
0.052142
0.0522136
0.0524987
0.0525505
0.0524785
0.0522451
0.0521454
0.0523014
0.0526362
0.0528627
0.053138
0.0533343
0.0556235
0.0563594
0.128896
0.135707
0.0611911
0.0578345
0.0543827
0.0533164
0.0527642
0.0524785
0.052341
0.0520494
0.0519228
0.0518916
0.0520143
0.0522925
0.0523556
0.0522609
0.0519867
0.051958
0.0521294
0.0525258
0.0528299
0.0533032
0.0542639
0.0575189
0.0610327
0.135518
0.151345
0.0692462
0.0615567
0.0559291
0.0544079
0.0533387
0.052738
0.0524163
0.052086
0.0519086
0.0518696
0.0520312
0.052311
0.0523886
0.0522797
0.0519537
0.0519861
0.0521538
0.0526467
0.0533222
0.0543077
0.0557003
0.0610017
0.0683648
0.154205
0.239219
0.0873843
0.0664965
0.0590347
0.0556557
0.054201
0.0533985
0.0529067
0.052517
0.0523143
0.0522703
0.0524645
0.0527493
0.0528366
0.0527142
0.0523795
0.0524419
0.0526301
0.0532078
0.05413
0.0556629
0.0587825
0.0661171
0.0867907
0.241296
0.3652
0.118449
0.0762203
0.0627774
0.0585842
0.0561163
0.0548599
0.0541246
0.0536815
0.0534734
0.053436
0.0536316
0.0539231
0.0540167
0.0539159
0.0536262
0.0536787
0.0538798
0.0545154
0.0557847
0.0582353
0.0624583
0.0749204
0.112713
0.365041
0.65787
0.194144
0.104633
0.0761473
0.0645092
0.0600069
0.0580849
0.0570285
0.0564834
0.0562524
0.0562091
0.0563572
0.0566581
0.0567814
0.0567377
0.056561
0.0566172
0.0568953
0.0577518
0.0594031
0.0641518
0.0751103
0.102598
0.185201
0.644456
0.582651
0.426313
0.18404
0.0964363
0.0815688
0.0707072
0.0660361
0.0642376
0.0633771
0.0630385
0.0629364
0.0629449
0.0632476
0.0634425
0.0635135
0.06353
0.0637721
0.0643973
0.0660484
0.0704598
0.0804374
0.0925816
0.174367
0.422914
0.580347
0.498532
0.401754
0.359188
0.366385
0.136966
0.0959783
0.0871753
0.0843029
0.0825262
0.0817636
0.0814318
0.0813492
0.0816089
0.0819203
0.0822204
0.0825942
0.0834841
0.0854145
0.0887023
0.0984433
0.15528
0.36884
0.351345
0.400699
0.504609
0.409141
0.352755
0.345357
0.37714
0.312741
0.216595
0.184834
0.143659
0.133182
0.130648
0.129221
0.129005
0.129153
0.129593
0.130339
0.131729
0.134652
0.144882
0.188635
0.227224
0.310514
0.373759
0.338651
0.364452
0.427573
0.349801
0.31971
0.316137
0.372103
0.44522
0.4991
0.463815
0.429058
0.454758
0.463137
0.46078
0.455742
0.454741
0.457768
0.460905
0.463214
0.451818
0.425128
0.460847
0.51005
0.447597
0.377416
0.320795
0.325684
0.361711
0.267856
0.271085
0.31776
0.400448
0.467401
0.514476
0.518224
0.486434
0.453164
0.45017
0.452561
0.452739
0.454417
0.456231
0.456498
0.454605
0.458076
0.482974
0.501645
0.512719
0.470934
0.4067
0.317744
0.277155
0.282374
0.19673
0.245665
0.323047
0.374681
0.414604
0.461247
0.481091
0.477566
0.45024
0.431861
0.423369
0.419643
0.420764
0.423594
0.430017
0.441225
0.458685
0.473825
0.464749
0.458683
0.417565
0.390812
0.325411
0.231224
0.180635
0.0910389
0.175274
0.312224
0.344561
0.364526
0.390926
0.406991
0.423127
0.414175
0.389158
0.373407
0.367204
0.367213
0.369749
0.376539
0.390318
0.412868
0.414567
0.394535
0.388686
0.363518
0.347635
0.315966
0.177618
0.0905281
0.0381024
0.118285
0.236763
0.282309
0.297933
0.324681
0.349988
0.368566
0.366976
0.342598
0.322528
0.312698
0.311549
0.314805
0.323948
0.339792
0.359955
0.35897
0.343113
0.32586
0.30299
0.289431
0.23813
0.116091
0.0370086
0.0393197
0.0944422
0.164568
0.209973
0.236481
0.267598
0.294853
0.317186
0.323237
0.30565
0.284904
0.273635
0.271655
0.276379
0.286641
0.303009
0.316204
0.308901
0.290883
0.267681
0.238788
0.211735
0.158518
0.0888124
0.0360415
0.0887455
0.114995
0.126912
0.164643
0.19014
0.224435
0.250181
0.272714
0.283115
0.270515
0.251926
0.239791
0.237575
0.242438
0.253706
0.268315
0.276615
0.265266
0.246145
0.223316
0.191377
0.165589
0.122564
0.110247
0.0851949
0.136426
0.130988
0.11814
0.133514
0.156367
0.190193
0.213225
0.236118
0.248231
0.238817
0.221267
0.209995
0.207174
0.211968
0.222203
0.236284
0.241888
0.22878
0.209594
0.186948
0.157254
0.133535
0.116837
0.12752
0.133814
0.163253
0.14172
0.115433
0.117784
0.135759
0.160625
0.182156
0.204812
0.216679
0.207963
0.192738
0.182309
0.180236
0.184141
0.193908
0.20607
0.210794
0.197197
0.177288
0.158726
0.136156
0.11856
0.114759
0.143331
0.15888
0.180782
0.157164
0.113688
0.109861
0.121052
0.138321
0.157701
0.177926
0.18867
0.181594
0.167508
0.159037
0.156772
0.160724
0.16879
0.180459
0.184483
0.171902
0.153796
0.136393
0.120387
0.110068
0.113447
0.160929
0.17674
0.199138
0.176176
0.112964
0.106525
0.110404
0.122078
0.138496
0.155276
0.164148
0.157921
0.146437
0.138273
0.136634
0.139561
0.147188
0.156455
0.159735
0.149418
0.134108
0.120518
0.109973
0.107133
0.112761
0.171771
0.201432
0.227668
0.185488
0.113976
0.105067
0.103003
0.110175
0.123196
0.136079
0.142956
0.137847
0.127557
0.121241
0.119454
0.122435
0.128332
0.136953
0.139787
0.131425
0.119531
0.107777
0.101583
0.104906
0.113551
0.183635
0.224205
0.252667
0.194393
0.115266
0.102764
0.0983036
0.101155
0.110029
0.119553
0.124527
0.119874
0.112022
0.106137
0.104976
0.10709
0.112843
0.119467
0.122118
0.115969
0.106794
0.0995846
0.0969194
0.102632
0.115134
0.193183
0.255581
0.282889
0.206088
0.118214
0.100459
0.0945985
0.0945947
0.100114
0.106657
0.109925
0.10594
0.0984886
0.0940682
0.0926223
0.0947584
0.0988534
0.104941
0.107436
0.103195
0.0970401
0.0921713
0.0927228
0.0993438
0.11664
0.202237
0.283893
0.318578
0.219259
0.119624
0.0978715
0.0910081
0.0898272
0.0914884
0.0950939
0.0965943
0.0925898
0.0872762
0.0830784
0.0822072
0.0836791
0.0878595
0.0924074
0.094859
0.092224
0.0884101
0.0876395
0.0890567
0.0971295
0.120278
0.21903
0.307193
0.33304
0.230046
0.124484
0.0958006
0.0873436
0.0845562
0.0844366
0.0859939
0.0860386
0.0827227
0.077419
0.0743966
0.0732751
0.0749646
0.0778187
0.0823297
0.0848929
0.083993
0.0822187
0.0825955
0.0855477
0.0949612
0.123349
0.234034
0.332151
0.341188
0.236434
0.128945
0.0953154
0.0843622
0.0807129
0.078548
0.0783868
0.0772872
0.073421
0.0695563
0.0664234
0.0657506
0.0668856
0.06989
0.0731331
0.0758278
0.0761377
0.0760109
0.0789121
0.082496
0.0942832
0.128905
0.241729
0.345256
0.352427
0.237331
0.13647
0.0962287
0.0812242
0.0759224
0.0732926
0.071889
0.0699621
0.0666586
0.0624621
0.060196
0.0592708
0.0606461
0.0627024
0.066357
0.0691497
0.0704639
0.0712092
0.0741534
0.0793588
0.0948722
0.137127
0.244905
0.354282
0.359012
0.239742
0.148344
0.097165
0.0790989
0.0726273
0.0685317
0.066015
0.0636172
0.059927
0.0568229
0.0543693
0.0537856
0.0547293
0.0571021
0.059801
0.0627481
0.064568
0.0667998
0.0713071
0.0774263
0.0958791
0.147032
0.244177
0.3633
0.360021
0.241116
0.154677
0.101644
0.0781568
0.0691594
0.064076
0.0614841
0.0585114
0.05532
0.0518046
0.0499231
0.0490779
0.0502239
0.0519126
0.055073
0.0578689
0.0603407
0.0622762
0.0676769
0.0765993
0.0994919
0.157673
0.242715
0.369965
0.365412
0.238919
0.154398
0.10445
0.0786062
0.0668545
0.0603839
0.0569612
0.053942
0.0502968
0.047647
0.0456184
0.0450709
0.0458702
0.0478922
0.0503119
0.0532406
0.0559018
0.0589523
0.0655695
0.0775716
0.104258
0.15859
0.238394
0.370584
0.367164
0.235028
0.154185
0.11274
0.0798053
0.0646101
0.0568493
0.0532017
0.0499891
0.0470609
0.0439944
0.0423794
0.0416042
0.0426235
0.0441176
0.0470106
0.0497385
0.052506
0.055535
0.0636578
0.0785826
0.112871
0.156904
0.232351
0.370358
0.364992
0.229871
0.153072
0.123782
0.0829465
0.064548
0.0548252
0.0499623
0.0466094
0.0432333
0.0409123
0.0391345
0.0386296
0.0393647
0.0411311
0.0432507
0.0460347
0.0492445
0.0537537
0.0631082
0.0820196
0.125418
0.154751
0.228067
0.366169
0.365365
0.224364
0.148712
0.12466
0.0870204
0.0641031
0.0527818
0.0473063
0.0436309
0.040853
0.0381493
0.036739
0.0360561
0.0369955
0.0382869
0.0408425
0.0435183
0.0466759
0.0516181
0.0634359
0.0871968
0.127047
0.150039
0.225562
0.359743
0.363772
0.222433
0.141517
0.123877
0.0941377
0.0657035
0.0526329
0.0452969
0.0411945
0.0378033
0.0357854
0.0342377
0.0337998
0.0344698
0.0360082
0.037896
0.0407767
0.0448593
0.0518577
0.0647589
0.0955204
0.12571
0.141398
0.222548
0.358817
0.357802
0.220899
0.134838
0.122928
0.106138
0.0680817
0.0523893
0.0440955
0.0392048
0.0362641
0.0337364
0.0324878
0.0318393
0.032674
0.0338111
0.036265
0.03917
0.0436209
0.0511194
0.0679587
0.108616
0.123461
0.133989
0.222367
0.354873
0.356266
0.21988
0.128956
0.118545
0.105825
0.0730284
0.053074
0.0439368
0.0379581
0.0339368
0.0319357
0.0305223
0.0301211
0.0306905
0.0321165
0.0339785
0.0375531
0.0436402
0.0527586
0.0740379
0.108642
0.118583
0.129933
0.222261
0.349784
0.348754
0.220196
0.12506
0.112615
0.105344
0.0811511
0.0545636
0.0437727
0.0371458
0.0332631
0.0304674
0.0292373
0.0286013
0.0293894
0.0305133
0.0333466
0.0371395
0.0434028
0.0546112
0.0835982
0.107191
0.112667
0.125424
0.220237
0.346426
0.341923
0.220216
0.123775
0.106727
0.10267
0.0887526
0.0588193
0.04457
0.0372651
0.0318054
0.0292863
0.0277165
0.0272843
0.0278636
0.0294063
0.031724
0.0369431
0.0441878
0.0599342
0.0889399
0.103033
0.106465
0.123553
0.220225
0.342287
0.336496
0.217046
0.121484
0.102805
0.0985512
0.0885712
0.0651749
0.0459222
0.0369944
0.0322848
0.0286734
0.0269583
0.0262153
0.0270857
0.0286723
0.0323557
0.0371647
0.0462813
0.0682106
0.0886965
0.097295
0.102787
0.122907
0.217345
0.334334
0.331513
0.216163
0.122089
0.0990133
0.0929459
0.0870227
0.0752336
0.0498189
0.0380137
0.031733
0.0285327
0.0262018
0.0255002
0.0263296
0.0285084
0.0316373
0.038029
0.0504949
0.0748444
0.0864517
0.0915266
0.0987643
0.122584
0.214548
0.332047
0.322596
0.211894
0.122326
0.0978808
0.0891679
0.0843664
0.0755977
0.0561896
0.0396722
0.0326312
0.0285747
0.0263041
0.0251119
0.0264462
0.0284753
0.0326962
0.0404077
0.0570906
0.0746147
0.0827517
0.0878006
0.0972528
0.121854
0.211146
0.323907
0.316433
0.208721
0.122145
0.0961447
0.0858001
0.0800565
0.074442
0.0654657
0.0443012
0.0328977
0.0286319
0.0260873
0.0251161
0.0262365
0.0286962
0.0330432
0.0458265
0.0658952
0.0738189
0.078793
0.0845629
0.0958515
0.12274
0.208669
0.316601
0.296584
0.20077
0.120465
0.0958271
0.0837954
0.0763571
0.0722739
0.0657922
0.0507314
0.0360992
0.0291633
0.0264643
0.0252169
0.0265989
0.0292662
0.0367954
0.0538011
0.0660348
0.0715004
0.0758097
0.0831902
0.0955716
0.120661
0.200546
0.296184
0.268714
0.189613
0.118475
0.094022
0.0821292
0.0738015
0.0689068
0.0648681
0.0579544
0.0403771
0.0307414
0.0266087
0.0255502
0.0267211
0.0310457
0.0408317
0.0578244
0.0649325
0.0685069
0.0733725
0.0815278
0.0935461
0.118319
0.189389
0.269522
0.0756082
0.214729
0.293197
0.323264
0.332952
0.337905
0.342111
0.346495
0.350935
0.356845
0.367602
0.408181
0.588071
0.874772
0.95755
0.961952
0.95317
0.944177
0.921719
0.888448
0.847896
0.808925
0.777183
0.751324
0.725643
0.692806
0.643988
0.562549
0.418906
0.164552
0.0710293
0.224667
0.301341
0.328608
0.337009
0.34134
0.346006
0.35107
0.357573
0.370679
0.418384
0.630985
0.927727
0.989592
0.988685
0.974221
0.965248
0.949044
0.921702
0.888277
0.848167
0.807377
0.772961
0.743851
0.714488
0.678006
0.624332
0.540115
0.399071
0.161013
0.0749649
0.240982
0.309714
0.333117
0.340248
0.345282
0.351337
0.36019
0.376593
0.432007
0.659015
0.95733
1.02875
1.02023
0.998886
0.981494
0.968662
0.94639
0.910852
0.881084
0.84393
0.800904
0.76363
0.731006
0.69828
0.658153
0.600263
0.513004
0.37459
0.155424
0.0778414
0.250326
0.314317
0.336166
0.34405
0.35285
0.366785
0.392711
0.458873
0.709152
0.967027
1.04516
1.05137
1.02878
1.00154
0.979857
0.956797
0.925605
0.890332
0.862771
0.830723
0.786114
0.746741
0.71188
0.677068
0.63452
0.574578
0.485397
0.350203
0.150199
0.0785265
0.254008
0.317241
0.340628
0.354723
0.380427
0.427837
0.519728
0.766768
0.956751
1.02914
1.05408
1.04772
1.02259
0.991497
0.958564
0.924895
0.891104
0.856294
0.832396
0.806599
0.757563
0.717412
0.682597
0.647718
0.604646
0.543381
0.455098
0.325796
0.14459
0.0791406
0.258406
0.322909
0.355051
0.396355
0.479917
0.636212
0.808397
0.930001
0.989289
1.01889
1.03452
1.02591
0.997264
0.952483
0.914068
0.882882
0.851325
0.816676
0.793862
0.773953
0.724462
0.683817
0.649051
0.614191
0.571391
0.510789
0.426811
0.306331
0.140572
0.0810502
0.270129
0.3431
0.411079
0.535574
0.732458
0.804776
0.874103
0.930416
0.961694
0.982519
0.995704
0.978614
0.93582
0.893123
0.863471
0.835541
0.806185
0.774328
0.753997
0.740205
0.696755
0.654151
0.619517
0.584613
0.541808
0.48317
0.402579
0.28859
0.136392
0.0915315
0.32075
0.427776
0.5944
0.792102
0.814711
0.817137
0.849321
0.883866
0.909806
0.928849
0.931452
0.898969
0.861228
0.828533
0.804215
0.780913
0.756404
0.728719
0.712783
0.70464
0.669738
0.625593
0.591822
0.557236
0.51485
0.45747
0.379654
0.272239
0.132575
0.152786
0.603958
0.81598
0.894369
0.847285
0.793699
0.77162
0.787354
0.812877
0.835743
0.849158
0.838773
0.811458
0.784344
0.75818
0.738242
0.720731
0.702006
0.679923
0.669375
0.665541
0.639848
0.596138
0.563521
0.529736
0.488119
0.432239
0.357397
0.256538
0.128719
0.220019
0.836293
1.06597
0.949892
0.800954
0.730526
0.697122
0.700365
0.720551
0.737693
0.748992
0.742035
0.723516
0.70488
0.686082
0.670312
0.658058
0.64522
0.629375
0.624141
0.623212
0.606476
0.56515
0.534002
0.501397
0.460893
0.406837
0.335552
0.241594
0.124985
0.255912
0.885572
1.01306
0.907753
0.72684
0.643827
0.606643
0.600904
0.614414
0.636041
0.649285
0.646361
0.637269
0.627306
0.615761
0.604498
0.596447
0.588759
0.578903
0.577794
0.57915
0.56982
0.532522
0.503115
0.472069
0.433058
0.381087
0.313772
0.227029
0.121078
0.28308
0.86723
0.881925
0.78587
0.661376
0.557351
0.51109
0.498438
0.513159
0.535533
0.551315
0.555565
0.557999
0.555255
0.550909
0.543105
0.538075
0.534681
0.529972
0.531667
0.534676
0.530776
0.498323
0.470954
0.441695
0.404335
0.354762
0.291881
0.212517
0.116768
0.305291
0.801709
0.741211
0.654522
0.576454
0.486078
0.428177
0.410083
0.421464
0.444222
0.462789
0.474188
0.48801
0.49434
0.493886
0.48722
0.484946
0.484305
0.483665
0.487265
0.491204
0.490673
0.463338
0.438067
0.410542
0.374839
0.328067
0.270035
0.198101
0.111991
0.321601
0.695614
0.608673
0.537435
0.479869
0.422308
0.364669
0.339856
0.346402
0.36703
0.388754
0.40514
0.427231
0.448964
0.444585
0.437897
0.437879
0.438603
0.440928
0.445577
0.44985
0.450866
0.428398
0.405185
0.379333
0.345447
0.302166
0.249263
0.184501
0.107264
0.33271
0.589097
0.486688
0.431074
0.390324
0.356363
0.311465
0.286983
0.286604
0.305582
0.328908
0.349288
0.380773
0.41164
0.4028
0.396326
0.396987
0.398334
0.402542
0.407418
0.411573
0.412481
0.394253
0.373104
0.348974
0.317363
0.27803
0.230218
0.172045
0.102747
0.335147
0.491797
0.390473
0.346598
0.319135
0.30439
0.268586
0.245801
0.240924
0.257702
0.280483
0.30547
0.343486
0.378773
0.369144
0.362713
0.361545
0.363612
0.368248
0.373365
0.3769
0.376519
0.361497
0.342498
0.320161
0.291228
0.25581
0.212806
0.16067
0.0984099
0.331241
0.418954
0.321817
0.310766
0.338874
0.329729
0.277441
0.22818
0.208904
0.220365
0.244173
0.273085
0.312928
0.352728
0.34387
0.335114
0.331726
0.333808
0.338439
0.343328
0.345967
0.343862
0.330692
0.314033
0.293365
0.267174
0.23542
0.196865
0.150301
0.0942834
0.32611
0.36295
0.312647
0.353209
0.383806
0.36654
0.303781
0.246333
0.199736
0.19571
0.22019
0.251529
0.290461
0.331209
0.323475
0.313883
0.307685
0.308621
0.313021
0.31712
0.31853
0.314789
0.302526
0.288019
0.268891
0.245307
0.216879
0.18238
0.140826
0.0903482
0.319976
0.33257
0.360105
0.387253
0.40797
0.395686
0.325921
0.263816
0.212188
0.186022
0.207156
0.240993
0.279145
0.313037
0.308916
0.29829
0.288364
0.287844
0.291618
0.294344
0.29399
0.28885
0.277739
0.264506
0.246832
0.225704
0.200256
0.169394
0.132202
0.0866367
0.3008
0.333903
0.395085
0.402157
0.423003
0.424869
0.356102
0.286895
0.228669
0.194474
0.201949
0.236069
0.268156
0.300016
0.300063
0.287205
0.273883
0.271078
0.273282
0.274395
0.272446
0.266032
0.256048
0.243333
0.227223
0.208274
0.185516
0.15787
0.12449
0.0831964
0.271721
0.359586
0.415184
0.409272
0.427093
0.434232
0.382846
0.310819
0.251143
0.207289
0.204602
0.234199
0.260327
0.288082
0.297204
0.281152
0.262229
0.256545
0.257104
0.256651
0.252951
0.245576
0.236868
0.224504
0.210069
0.192963
0.172473
0.147586
0.117705
0.0800612
0.25477
0.387622
0.428019
0.415344
0.435598
0.444541
0.395992
0.330319
0.277427
0.224857
0.213363
0.233958
0.257492
0.28101
0.304498
0.278511
0.253189
0.244196
0.242706
0.240602
0.235997
0.228146
0.219898
0.208127
0.195036
0.179429
0.16087
0.138322
0.111624
0.0771497
0.239901
0.38672
0.421274
0.417833
0.439012
0.4393
0.406234
0.348123
0.304642
0.24911
0.224901
0.238344
0.259962
0.285343
0.326723
0.280082
0.24613
0.232974
0.22943
0.226583
0.220889
0.213126
0.204765
0.193641
0.181589
0.167287
0.15059
0.130069
0.106024
0.0743491
0.248659
0.392023
0.418037
0.428154
0.446726
0.42663
0.418427
0.365477
0.33205
0.281354
0.241287
0.247893
0.268241
0.305494
0.339791
0.287677
0.242573
0.223988
0.217399
0.213874
0.20696
0.199421
0.190876
0.180923
0.169896
0.156849
0.14155
0.12278
0.100874
0.0717311
0.225036
0.34049
0.414713
0.444497
0.457882
0.426047
0.426218
0.385143
0.355413
0.313564
0.262989
0.261389
0.283804
0.313521
0.337251
0.307918
0.245411
0.218207
0.207022
0.201429
0.193748
0.186878
0.178708
0.170061
0.159755
0.147842
0.133642
0.116357
0.0962456
0.0693175
0.164672
0.419867
0.563789
0.645719
0.695505
0.728989
0.755374
0.78216
0.814438
0.853173
0.892536
0.926177
0.949163
0.957356
0.965388
0.962972
0.885749
0.606507
0.414022
0.36977
0.357918
0.351657
0.346972
0.342894
0.338578
0.333609
0.324001
0.293779
0.21496
0.0757683
0.161219
0.400231
0.541678
0.626484
0.681006
0.718186
0.74822
0.778164
0.812823
0.852726
0.891283
0.92528
0.953642
0.969526
0.978011
0.991544
0.993298
0.936793
0.657914
0.427012
0.373564
0.358889
0.352029
0.346678
0.342253
0.337697
0.329006
0.301473
0.224543
0.0712366
0.155732
0.375951
0.514922
0.602858
0.66156
0.702278
0.735696
0.769015
0.806296
0.847421
0.882763
0.912991
0.948679
0.972048
0.984671
1.00088
1.02184
1.03134
0.967357
0.692135
0.443653
0.381076
0.362833
0.352814
0.346436
0.341169
0.333555
0.30963
0.240334
0.07511
0.150638
0.351758
0.487697
0.577561
0.638356
0.681373
0.716891
0.752364
0.791433
0.832697
0.862886
0.891305
0.925928
0.957522
0.981591
1.00277
1.02927
1.05169
1.04581
0.975399
0.744805
0.475509
0.402416
0.372021
0.355584
0.345462
0.336948
0.314343
0.250223
0.0778552
0.14515
0.32757
0.457796
0.546754
0.608765
0.652289
0.687852
0.723207
0.762869
0.806731
0.83144
0.85598
0.890285
0.92362
0.957868
0.991273
1.02204
1.04646
1.05163
1.02651
0.960547
0.798726
0.556256
0.4454
0.389453
0.358185
0.342073
0.317652
0.254111
0.0785595
0.141177
0.308183
0.429547
0.514377
0.5757
0.618894
0.654325
0.68953
0.729988
0.772896
0.792655
0.815915
0.849683
0.880811
0.911974
0.949933
0.994907
1.02327
1.03012
1.01322
0.983891
0.928861
0.81799
0.67497
0.506994
0.408662
0.359611
0.324523
0.25913
0.0793186
0.137024
0.290434
0.40528
0.486582
0.546051
0.589164
0.624651
0.659711
0.70161
0.738708
0.753083
0.773528
0.804262
0.832931
0.860742
0.889831
0.931648
0.973873
0.990061
0.97555
0.954209
0.921663
0.867711
0.806418
0.758026
0.568965
0.427619
0.350829
0.275159
0.0820457
0.133215
0.274084
0.382332
0.460848
0.518783
0.561519
0.596563
0.630554
0.673614
0.702652
0.711492
0.727587
0.754023
0.777768
0.800802
0.824483
0.856714
0.892839
0.923623
0.920633
0.90084
0.872835
0.837935
0.808881
0.817037
0.81598
0.637305
0.463288
0.345524
0.0963904
0.129349
0.258334
0.360004
0.435476
0.491775
0.533701
0.567848
0.600437
0.642694
0.663262
0.667618
0.678463
0.699298
0.717281
0.734525
0.753743
0.779361
0.805106
0.830009
0.8388
0.824259
0.800558
0.773744
0.760441
0.785999
0.849806
0.932904
0.916824
0.6838
0.171201
0.125584
0.243305
0.338041
0.409874
0.46431
0.505016
0.537878
0.568851
0.60831
0.620787
0.62211
0.627717
0.642443
0.654532
0.666602
0.681542
0.699726
0.716898
0.733509
0.739105
0.725446
0.707271
0.68566
0.685047
0.719793
0.79568
0.969278
1.06718
0.842449
0.225994
0.121626
0.228606
0.316095
0.383916
0.436201
0.475331
0.506518
0.535608
0.570743
0.576755
0.57571
0.577115
0.586094
0.592934
0.600998
0.611404
0.622358
0.63056
0.637946
0.63962
0.624289
0.60067
0.586245
0.594173
0.634208
0.724413
0.900329
0.988834
0.871874
0.257932
0.117267
0.213923
0.293991
0.35735
0.40723
0.444623
0.473901
0.500874
0.530884
0.5326
0.529689
0.528119
0.532374
0.534886
0.539944
0.547176
0.55059
0.55138
0.547599
0.54218
0.524411
0.500296
0.485707
0.501016
0.551737
0.663842
0.767571
0.855307
0.848176
0.284031
0.112431
0.19931
0.271873
0.330375
0.377521
0.413166
0.44056
0.465421
0.49009
0.48944
0.485406
0.481865
0.482604
0.482265
0.484443
0.490964
0.491179
0.48085
0.466845
0.45457
0.434151
0.410754
0.400531
0.423243
0.486048
0.565722
0.636052
0.71718
0.779081
0.305161
0.107632
0.185503
0.250807
0.304136
0.347832
0.38165
0.40727
0.430122
0.449833
0.44846
0.444017
0.439488
0.437305
0.435714
0.435625
0.442499
0.446522
0.421752
0.398269
0.381432
0.358373
0.338368
0.33403
0.361571
0.42025
0.468257
0.521486
0.586327
0.674156
0.320971
0.103062
0.172886
0.231505
0.279682
0.319373
0.351018
0.374838
0.395561
0.411424
0.410571
0.406194
0.401367
0.397378
0.395385
0.394544
0.40134
0.409493
0.376735
0.342239
0.321974
0.298795
0.280993
0.282986
0.309153
0.352443
0.380239
0.415571
0.471036
0.570819
0.33226
0.0986811
0.161381
0.213896
0.257209
0.29292
0.322011
0.343996
0.362387
0.375816
0.376327
0.372478
0.367228
0.36268
0.360444
0.361547
0.368286
0.376591
0.33997
0.299488
0.274329
0.252376
0.236344
0.242846
0.269364
0.306923
0.314841
0.334936
0.378327
0.480898
0.334081
0.0944954
0.150873
0.197755
0.23659
0.268596
0.295009
0.315298
0.331254
0.343595
0.345664
0.342768
0.337676
0.332976
0.331137
0.334199
0.343272
0.350485
0.309957
0.269173
0.239215
0.216073
0.205966
0.232085
0.287887
0.339895
0.344554
0.313136
0.314718
0.412398
0.329785
0.0904845
0.141233
0.183026
0.21779
0.246432
0.270236
0.289034
0.303049
0.314699
0.31842
0.316879
0.312551
0.307996
0.307412
0.313834
0.323216
0.32854
0.289653
0.249556
0.217714
0.193354
0.203703
0.254199
0.314111
0.375895
0.388189
0.357239
0.316474
0.35901
0.324784
0.0866859
0.132421
0.169789
0.200899
0.226541
0.247885
0.265436
0.278315
0.288867
0.293898
0.294234
0.291329
0.287506
0.288546
0.298666
0.309218
0.310424
0.276259
0.24011
0.206277
0.187769
0.216618
0.270954
0.336525
0.405581
0.410987
0.387811
0.363721
0.333891
0.3177
0.0831756
0.124544
0.158062
0.185905
0.20884
0.227977
0.244255
0.256768
0.266209
0.27232
0.274197
0.272919
0.270803
0.274252
0.288299
0.301511
0.294318
0.264118
0.233552
0.200292
0.196372
0.233707
0.293496
0.366796
0.430184
0.423451
0.402639
0.397134
0.339822
0.297832
0.0799869
0.11764
0.147696
0.172727
0.193344
0.210579
0.225219
0.237573
0.246009
0.252968
0.256481
0.256803
0.256334
0.263011
0.282872
0.299727
0.282558
0.256036
0.231178
0.204356
0.208955
0.255625
0.315459
0.391375
0.438764
0.428333
0.409363
0.416487
0.365863
0.26881
0.0770541
0.111519
0.138391
0.161051
0.179738
0.195451
0.208634
0.220398
0.228495
0.23611
0.240496
0.242606
0.244336
0.254341
0.280388
0.307368
0.27673
0.25398
0.230586
0.212202
0.227068
0.281094
0.334476
0.403173
0.447987
0.435792
0.416209
0.427609
0.393495
0.252359
0.0742672
0.105948
0.130097
0.150681
0.167544
0.18198
0.194033
0.205223
0.213359
0.221025
0.226461
0.229418
0.233434
0.247462
0.281862
0.328185
0.285895
0.256533
0.235359
0.224452
0.251997
0.307653
0.352904
0.414146
0.44184
0.439619
0.419034
0.421182
0.389896
0.237491
0.071612
0.100804
0.122743
0.141579
0.157001
0.170227
0.181192
0.191185
0.199983
0.207174
0.213578
0.2174
0.224712
0.244532
0.290981
0.333584
0.302573
0.266194
0.245281
0.241854
0.285352
0.336841
0.372185
0.426486
0.429548
0.449632
0.431405
0.418054
0.393654
0.245437
0.0691587
0.0961191
0.11625
0.133599
0.147894
0.16006
0.170243
0.178948
0.187322
0.194109
0.201183
0.207229
0.218992
0.248239
0.314995
0.3301
0.308872
0.282779
0.259595
0.265672
0.317928
0.361239
0.392309
0.433874
0.430012
0.461241
0.448248
0.415151
0.342259
0.222107
0.992155
0.955681
0.921749
0.876038
0.828345
0.800652
0.767645
0.746613
0.726381
0.702668
0.687161
0.670091
0.653135
0.637678
0.624284
0.612371
0.602949
0.59532
0.588396
0.582276
0.577348
0.572789
0.567652
0.561721
0.555129
0.547239
0.537483
0.525928
0.512132
0.496018
0.47878
0.46087
0.442806
0.424845
0.407047
0.389765
0.373018
0.356276
0.339587
0.323194
0.307481
0.291606
0.276187
0.260781
0.245575
0.231171
0.216392
0.205683
0.196799
0.187928
0.179635
0.172492
0.166153
0.160828
0.15627
0.152223
0.14863
0.145356
0.142355
0.139727
0.137357
0.135187
0.133231
0.131675
0.130414
0.129219
0.127924
0.126524
0.125026
0.123562
0.122169
0.120893
0.119819
0.118956
0.118272
0.11771
0.117197
0.116576
0.115462
0.113702
0.110898
0.106829
0.102225
0.0973682
0.0924252
0.0875057
0.0826771
0.0780326
0.0736996
0.0698035
0.0663652
0.0633381
0.0606779
0.0583577
0.0563601
0.054662
0.0532521
0.0521065
0.0511948
0.0504843
0.0499483
0.0495635
0.04931
0.0491772
0.0491392
0.0491814
0.0492935
0.0494476
0.0496546
0.0499315
0.0502891
0.0507552
0.0513204
0.0519603
0.0526536
0.0534048
0.0542967
0.0554036
0.0568016
0.0579982
0.0593806
0.061013
0.062769
0.0647006
0.0668866
1.38853
1.32414
1.25325
1.1891
1.12395
1.08039
1.04137
1.00534
0.975209
0.949033
0.924855
0.898935
0.87565
0.854146
0.834696
0.817002
0.802926
0.793052
0.787124
0.783711
0.783467
0.786672
0.793332
0.802756
0.812811
0.82148
0.827562
0.829248
0.827785
0.824619
0.819556
0.80996
0.796437
0.779645
0.760363
0.73987
0.720427
0.705174
0.691115
0.673555
0.654874
0.634149
0.610679
0.585697
0.558453
0.526474
0.494628
0.461961
0.428705
0.395929
0.363782
0.335286
0.309536
0.287909
0.26944
0.253555
0.240104
0.228959
0.219802
0.212365
0.206243
0.200983
0.196592
0.19326
0.190942
0.189348
0.188378
0.187992
0.187822
0.187836
0.187869
0.187858
0.18807
0.188587
0.189332
0.191305
0.194086
0.195723
0.195966
0.195166
0.192406
0.187106
0.180631
0.173371
0.165243
0.156251
0.14635
0.135577
0.124154
0.112687
0.102735
0.0949527
0.0882315
0.0826378
0.0782444
0.0749072
0.0723633
0.0703769
0.06883
0.0676291
0.0667051
0.0660068
0.0654951
0.0651508
0.0649443
0.0648669
0.0649059
0.0650196
0.0652359
0.065565
0.0660089
0.0666227
0.0673749
0.0682262
0.0691385
0.0702008
0.0716287
0.0733841
0.0754014
0.0771188
0.0792815
0.0819193
0.0848258
0.0880788
0.0918569
1.25795
1.21238
1.16236
1.11168
1.07756
1.04932
1.0297
0.997346
0.97833
0.958774
0.938474
0.925679
0.914703
0.906354
0.899823
0.896903
0.895951
0.897504
0.900806
0.905389
0.912715
0.922397
0.932593
0.941411
0.949198
0.956094
0.959851
0.957453
0.946236
0.925793
0.897535
0.866654
0.837833
0.814002
0.793034
0.771272
0.74889
0.72825
0.713968
0.704668
0.694401
0.684956
0.670022
0.657111
0.64495
0.629655
0.614712
0.597824
0.578774
0.551975
0.518286
0.480242
0.442265
0.406362
0.374465
0.346789
0.32358
0.304113
0.287617
0.273954
0.263075
0.254981
0.249556
0.246773
0.246212
0.246603
0.248638
0.251782
0.25483
0.257378
0.258334
0.25692
0.256027
0.25509
0.254196
0.25245
0.248751
0.24415
0.239802
0.235309
0.231131
0.225968
0.220178
0.214234
0.208399
0.20273
0.197112
0.191355
0.185138
0.177739
0.167313
0.152942
0.136278
0.119315
0.106706
0.0973009
0.0902904
0.0853555
0.0820141
0.079606
0.0778363
0.0765606
0.0756851
0.0751339
0.0748271
0.0746913
0.074697
0.0748021
0.0750134
0.0753389
0.0758281
0.0765099
0.0773484
0.0783242
0.0794165
0.080711
0.0825546
0.0848975
0.0876729
0.090135
0.093181
0.0966556
0.100556
0.105086
0.110378
1.11847
1.10718
1.07324
1.04528
1.02091
1.00682
0.999614
0.98544
0.978295
0.964089
0.948345
0.94128
0.933487
0.928441
0.927296
0.9302
0.933668
0.938618
0.947212
0.958755
0.971257
0.98517
0.999811
1.01316
1.02031
1.01492
0.99533
0.965187
0.927408
0.882992
0.837927
0.797647
0.77158
0.75595
0.745614
0.73842
0.72975
0.717511
0.696498
0.675131
0.656118
0.63539
0.617981
0.602277
0.586402
0.570156
0.555904
0.546119
0.54471
0.547893
0.560874
0.579493
0.57016
0.541504
0.500376
0.456107
0.417844
0.386413
0.361786
0.342626