/*--------------------------------*- C++ -*----------------------------------*\
| =========                 |                                                 |
| \\      /  F ield         | OpenFOAM: The Open Source CFD Toolbox           |
|  \\    /   O peration     | Version:  2112                                  |
|   \\  /    A nd           | Website:  www.openfoam.com                      |
|    \\/     M anipulation  |                                                 |
\*---------------------------------------------------------------------------*/
FoamFile
{
    version     2.0;
    format      ascii;
    arch        "LSB;label=32;scalar=64";
    class       volScalarField;
    location    "0.00758";
    object      T;
}
// * * * * * * * * * * * * * * * * * * * * * * * * * * * * * * * * * * * * * //

dimensions      [0 0 0 1 0 0 0];

internalField   nonuniform List<scalar> 
13875
(
1412.01
1535.6
1482.46
1487.89
1481.76
1483.43
1483.94
1483.84
1484.67
1484.48
1483.96
1484.19
1483.55
1483.91
1483.85
1483.86
1483.44
1484.72
1484.87
1483.12
1481.88
1487.66
1480.53
1532.6
1396.76
1307.02
1356.15
1318.91
1322.41
1316.61
1318.58
1322.08
1323.26
1323.93
1323.49
1322.96
1323.13
1318.1
1317.68
1318.37
1322.76
1322.95
1323.47
1322.31
1317.82
1316.7
1321.9
1319.6
1355.95
1303.41
1307.24
1340.13
1314.43
1312.29
1305.41
1306.01
1305.78
1306.43
1307.15
1306.09
1304.89
1305.99
1303.82
1304.03
1303.9
1305.78
1303.89
1305.94
1306.03
1305.09
1304.86
1311.07
1311.37
1336.24
1298.22
1317.39
1344.88
1314.81
1309.21
1306.25
1306.63
1304.87
1304.62
1304.54
1303.6
1302.88
1303.52
1303.94
1304.08
1304.04
1303.45
1302.43
1303.5
1304.21
1305.49
1305.35
1307.69
1313.95
1343.9
1312.04
1329.55
1342.21
1315.85
1312.99
1305.3
1306.25
1305.38
1304.57
1304.62
1303.65
1302.92
1303.46
1303.8
1304.23
1303.83
1303.29
1302.52
1304
1305.2
1304.88
1304.75
1311.75
1312
1338.35
1315.99
1332.24
1351.21
1318.92
1310.36
1308.22
1307.66
1304.84
1304.74
1304.6
1303.55
1303.08
1303.7
1304.19
1304.51
1304.3
1303.55
1302.63
1303.55
1304.27
1306.56
1307.27
1308.43
1319.02
1348.95
1325.89
1339.03
1360.56
1329.19
1318.01
1308.04
1307.52
1306.41
1305.23
1305.01
1304.03
1303.58
1303.72
1304.32
1304.84
1304.23
1303.58
1303.17
1304.59
1306.2
1306.55
1307.8
1317.61
1325.71
1358.13
1321.28
1359.78
1384.76
1344.13
1321.37
1317.16
1310.89
1307.01
1305.34
1305.15
1304.64
1304.19
1304.42
1305.1
1305.51
1305.21
1304.18
1303.76
1304.95
1306.17
1309.93
1315.28
1320.37
1341.52
1380.88
1350.28
1537.22
1508.47
1387.24
1350.87
1321.37
1316.38
1311.3
1308.15
1306.82
1306.29
1305.68
1305.45
1306.26
1306.86
1306.31
1305.64
1305.63
1307.28
1310.55
1314.25
1321.33
1349.27
1382.7
1505.58
1521.86
1834.88
1574.35
1426.95
1358.15
1338.5
1320.67
1313.92
1310.78
1310.19
1309.27
1308.39
1308.13
1308.89
1309.54
1309.18
1308.58
1308.84
1310.94
1314.08
1320.54
1336.97
1357.05
1424.76
1566.45
1827.02
2506.79
1803.92
1517.29
1407.27
1350.39
1331.46
1325.45
1317.91
1316.67
1315.07
1313.82
1313.41
1314.05
1314.85
1314.72
1314.62
1315.16
1317.7
1326.08
1330.04
1348.68
1419.42
1502.09
1797.65
2428.9
2812.12
2301.61
1735.87
1463.45
1425.67
1360.67
1339.93
1331.95
1329.55
1326.93
1325.54
1325.04
1325.43
1326.21
1326.35
1326.96
1328.26
1331.79
1339.85
1370.34
1405.13
1456.81
1730.88
2306.15
2836.86
2786.35
2654.52
2352.12
2203.77
1522.93
1414.29
1396.81
1372.99
1364.53
1357.6
1354.48
1353.36
1353.2
1353.96
1354.8
1357.7
1363.81
1374.68
1400.37
1421.75
1567.22
2235.21
2244.64
2686.89
2766.11
2722.65
2661.24
2744.43
2787.59
2049.96
1825.43
1521.34
1476.92
1459.95
1448.06
1443.65
1442.14
1441.81
1442.61
1443.88
1448.36
1459.5
1479.3
1540.23
1910.82
2100.55
2797.83
2792.39
2703.06
2701.24
2581.89
2637.58
2684.83
2687.65
2588.6
2362.04
2024.26
1964.34
1867.08
1768.85
1733.53
1722.24
1718.44
1720.14
1726.87
1750.75
1842.19
1963.59
1985.69
2411.68
2633.51
2733.86
2677.48
2651.49
2625.4
2499.63
2537.3
2629.18
2685.41
2658.05
2687.21
2871.96
2949.73
2947.87
3047.03
3128.68
3152.06
3162.04
3156.66
3140.04
3075.09
2915.83
2944.73
2904.96
2717.28
2657.27
2707.33
2627.73
2558.06
2532.83
2313.54
2396.66
2477.03
2530.03
2607.19
2736.06
3036.49
3416.85
3596.85
3683.79
3696.26
3689.29
3686.7
3690.71
3700.24
3703.98
3606.28
3431.01
3074.47
2748.1
2618.32
2568.79
2467.84
2403.86
2329.3
2024.95
2150.38
2305.07
2616.09
2785.17
2830.01
2964.16
3319.73
3537.34
3643.75
3673.05
3671.04
3670.45
3673
3675.34
3651.22
3510.93
3302.5
2956.58
2821.06
2797.13
2579.61
2273.12
2142.65
2025.22
1811.18
1874.62
2007.96
2249.86
2741.23
2837.47
2877.42
3109.18
3360.41
3497.07
3538.59
3552.82
3556.24
3556.12
3544.68
3507.79
3364.9
3120.33
2913.41
2925.61
2719.47
2222.87
2008.6
1881.95
1814.26
2440.4
2327.55
2081.29
2181.08
2512.51
2687.26
2695.01
2845
3080.48
3280.46
3385.94
3426.24
3436.23
3428.71
3390.07
3280.46
3069.83
2853.2
2725.69
2711.11
2500.84
2211.86
2121.68
2335
2439.9
3300.83
3402.28
2723.03
2289.28
2388.36
2526.88
2545.3
2663.87
2891.88
3112.33
3250.65
3304.53
3312.69
3303.46
3244.43
3091.92
2860.53
2660.7
2550.49
2540.82
2365.92
2310.77
2787.97
3466.33
3300.8
3661.39
3581.99
2770.57
2192.02
2213.09
2361.1
2416.1
2526.28
2740.93
2969.89
3118.7
3176.26
3187.51
3171.84
3102.63
2936.92
2705.87
2522.27
2414.47
2366.47
2191.51
2222.98
2846.07
3610.73
3686.61
3489
3062.5
2453.71
2024.06
2068.98
2231.89
2307.92
2420.23
2615.63
2835.39
2990.19
3053.98
3063.44
3048.54
2975.44
2807
2585.86
2419.45
2295.99
2230.99
2043.31
2036.54
2443.07
3050.05
3508.73
3515.09
2912.01
2202.85
1874.47
1979.64
2132.6
2206.88
2318.08
2508.8
2723.04
2868.68
2929.93
2944.05
2924.95
2853.95
2694.86
2481.44
2318.46
2202.72
2127.52
1947.59
1875.25
2218.02
2923.46
3530.42
3438.16
2738.88
2056.27
1800.54
1939.53
2066.03
2115.96
2235.02
2416.08
2616.88
2758.72
2819.46
2828.37
2812.46
2742.06
2587.51
2385.35
2230.54
2114.97
2060.85
1909.14
1795.65
2079.67
2794.11
3459.02
3409.12
2709.08
2004.95
1809.92
1911.69
1990.96
2038.6
2150.23
2327.25
2520.03
2651.08
2705.83
2720.56
2701.85
2638.16
2495.95
2303.09
2148.76
2044.71
1995.43
1884.8
1808.85
2014.91
2720.42
3416.23
3336.87
2569.04
1940.7
1814.44
1888.68
1950.72
1972.4
2089.76
2256.07
2431.17
2553.4
2608.08
2616.75
2602.96
2541.16
2410.11
2230.92
2083.66
1973.77
1954.91
1875.29
1808.47
1954.34
2599.89
3363.58
3308.11
2543.12
1953.22
1844.03
1880.6
1891.27
1913.1
2026.56
2188.08
2354.69
2461.3
2506.8
2521.42
2503.86
2449.57
2330.21
2161.53
2019.48
1919.76
1901.8
1866.58
1839.75
1964.96
2595.84
3346.66
3303.42
2522.3
1929.83
1842.02
1848.58
1864.23
1866.11
1980.98
2127.71
2274.99
2373.66
2421.94
2429.83
2419.1
2367.78
2264.59
2110.8
1975.73
1868.46
1873.97
1848.86
1842.92
1927.76
2505.89
3275.37
3270.7
2532.26
1966.74
1880.21
1847.29
1831.42
1824.19
1932.7
2072.17
2211.91
2297.2
2332.92
2346.67
2331.51
2288.29
2194.75
2052.7
1927.97
1830.75
1846.19
1842.31
1877.32
1962.1
2515.89
3258.76
3182.37
2437.98
1940.26
1884.71
1804.67
1813.11
1793.97
1907.69
2030.37
2149.51
2221.77
2261.73
2266.72
2258.77
2216.43
2138.14
2010.76
1895.4
1792.96
1827.99
1811.33
1879.79
1940.88
2451.26
3208.05
3153.57
2437.33
1991.14
1914.75
1809.84
1788.19
1768.91
1866.82
1978.4
2091.87
2157.32
2183.54
2195.56
2183.5
2151.68
2081.73
1966.91
1867.34
1775.9
1800.12
1816.81
1907.44
1978.3
2415.8
3135.75
3088.78
2381.76
1997.71
1898.43
1783.64
1761.21
1745.58
1851.73
1948.2
2042.87
2092.29
2125.04
2127.18
2122.52
2089.14
2035.73
1932.93
1841.23
1747.27
1773.86
1789.64
1898.24
1977.75
2374.03
3074.09
3052.66
2355.96
2020.04
1922.47
1804.04
1746.52
1733.12
1823.79
1904.24
1993
2040.31
2057.3
2067.45
2057.54
2034.56
1984.22
1893.49
1820.71
1734.73
1754.62
1806.48
1913.24
2018.32
2364.9
3072.59
3014.17
2320.51
2014.36
1918.25
1785.77
1720.95
1706.11
1811.17
1879.47
1952.07
1981.89
2009.39
2009.56
2008.11
1981.75
1949.11
1867.94
1802.72
1707.38
1730.2
1789.82
1916.34
2010.73
2320.86
3043.66
2993.57
2310.6
2020.45
1938.32
1800
1726.56
1699.96
1786.92
1842.42
1906.53
1940.75
1950.79
1959.92
1951.81
1934.64
1899.71
1835.06
1789.54
1697.82
1728.77
1805.96
1932
2021.87
2343.37
3017.29
2942.76
2267.91
2007.53
1956.31
1791.21
1713.05
1676.74
1777.2
1824.63
1877.55
1890.23
1912.7
1910.82
1911.57
1890.29
1873.23
1808.17
1770.04
1671.54
1715.48
1791.33
1951.73
2005.8
2294.88
2959.81
2930.92
2278.13
2016.53
2001.9
1815.42
1732.05
1679.12
1756.08
1787.86
1831.64
1856.57
1862.17
1869.52
1863.02
1851.43
1827.24
1783.42
1763.4
1671.46
1728.39
1815.84
1985.22
2009.64
2280.04
2933.33
2895.07
2256.91
1993.33
2006.52
1821.85
1718.75
1663.51
1748.94
1772.12
1812.43
1814.35
1832.2
1828.49
1831.2
1814.12
1808
1751.91
1742.1
1658.04
1717.19
1812.51
2006.68
1979.16
2252.35
2887.69
2850.09
2250.21
1976.43
2001.76
1853.56
1751.15
1682.97
1737.79
1741.83
1767.01
1786.03
1788.8
1793.99
1789.34
1780.33
1763.63
1733.16
1738.48
1668.13
1742.43
1843.99
1995.86
1965.63
2246.47
2874.9
2823.48
2243.22
1945.07
1996.43
1910.48
1744.55
1677.08
1729.94
1726.86
1755.63
1750.32
1764.28
1759.49
1764.08
1750.34
1752.74
1701.78
1720.97
1674.32
1729.57
1874.08
1997.96
1938.69
2236.11
2840.83
2789.45
2237.7
1935.92
1982.88
1930.54
1781.8
1712.95
1733.45
1705.67
1711.98
1725.99
1725.9
1730.25
1727.64
1719.89
1713.03
1694.19
1728.63
1703.16
1775.87
1937.39
1982.29
1937.12
2257.24
2793.51
2759.72
2216.53
1912.79
1962.24
1927.43
1809.05
1719.14
1735.49
1696.19
1712.84
1697.97
1706.94
1701.02
1707.12
1696.54
1707.82
1664.89
1718.06
1706.81
1779.08
1938.97
1974.37
1920.8
2233.36
2762.25
2727.8
2214.98
1914.06
1933.18
1919.36
1879.24
1758.36
1753.3
1690.31
1672.43
1676.79
1673.5
1676.27
1674.97
1670.44
1677.51
1680.43
1742.76
1742.41
1838.65
1926.41
1940.92
1915.61
2212.84
2733.25
2707.16
2201.02
1899.56
1907.79
1901.94
1897.3
1772.62
1754.3
1691.19
1687.19
1658.05
1659.86
1651.75
1659.57
1654.42
1682.62
1659.84
1734.7
1765.08
1910.11
1915.97
1921.02
1901.51
2203
2710.85
2668.86
2181.37
1899.66
1886.18
1873.98
1888.41
1836.69
1780.46
1706.9
1655.32
1644.95
1632.47
1632.21
1632.93
1636.48
1659.5
1690.69
1768.85
1828.88
1904.33
1888.11
1889.23
1903.9
2189.55
2679.34
2652.17
2179.74
1889.13
1870.2
1843.14
1870.51
1916.77
1800.94
1708.98
1690.07
1643.3
1629.82
1616.03
1628.09
1636.91
1682.47
1670.26
1780.64
1917.61
1884.38
1862.05
1879.49
1891.02
2180.59
2656.05
2605.13
2158.64
1887.47
1854.45
1817.77
1856.78
1895.46
1869.79
1738.98
1660.61
1640.42
1612.74
1605.34
1612.29
1629.82
1667.56
1722.25
1848.61
1906.34
1869.24
1835.91
1859.23
1901.31
2165.15
2605.06
2564.23
2140.33
1868.21
1848.36
1800.46
1819.02
1885.96
1958.91
1763.7
1705.57
1648.4
1631.58
1606.28
1628.52
1640.08
1700.58
1716.76
1936.95
1886.14
1828.17
1815.61
1863.46
1876.81
2144.68
2567.72
2404
2090.96
1850.59
1832.03
1784.97
1797.29
1856.9
1929.05
1859.82
1689.73
1653.9
1614.94
1609.25
1613.89
1638.51
1705.46
1817.2
1930.13
1867.83
1802.2
1798.27
1839.91
1856.23
2094.39
2394.81
869.925
924.023
906.936
800.99
648.17
589.952
593.778
628.358
653.971
667.494
710.421
743.297
720.338
586.517
456.21
389.535
358.029
348.119
361.319
392.014
401.541
402.09
402.399
404.551
409.106
411.052
412.283
413.481
411.703
417.688
945.581
937.976
878.548
697.801
583.671
570.372
596.36
674.035
703.251
709.931
737.609
747.367
707.559
567.897
454.35
397.074
373.255
378.593
401.978
408.393
412.267
412.072
411.399
414.393
418.392
420.003
421.062
421.828
419.74
420.519
958.685
932.923
822.638
644.196
561.72
569.687
631.608
725.89
745.077
746.035
761.495
755.725
692.167
550.162
455.39
409.45
405.613
412.986
416.151
415.103
414.248
413.965
414.264
417.617
421.461
422.837
424.096
424.525
422.522
421.717
973.154
917.278
763.47
609.553
551.231
572.76
669.073
753.305
777.186
779.448
783.396
763.549
673.186
547.442
472.456
451.318
438.145
428.276
425.489
421.641
419.615
419.399
420.75
425.016
428.605
430.157
431.022
430.108
427.949
425.643
976.574
890.924
721.977
587.021
545.383
582.964
686.136
765.803
796.919
806.386
800.083
765.258
655.225
564.582
505.628
466.848
445.135
435.483
430.797
426.55
424.333
423.515
425.765
430.394
433.143
434.406
434.955
433.455
431.241
430.431
977.959
865.405
690.833
571.593
541.845
586.588
691.21
772.23
805.015
817.221
805.536
751.371
646.972
558.192
499.86
465.287
446.078
439.954
435.469
432.048
430.141
428.997
432.244
437.258
439.958
441.445
442.155
440.591
438.391
434.512
980.679
845.277
672.611
566.955
542.186
587.222
687.938
758.188
785.232
790.195
757.736
688.004
594.673
526.016
482.624
457.024
445.65
443.047
440.237
437.965
436.232
435.712
438.857
443.957
445.916
446.574
446.132
444.043
441.56
436.053
987.02
832.77
664.667
567.772
547.392
574.147
632.215
677.206
693.877
689.187
647.587
590.966
531.165
489.478
465.215
452.422
446.837
447.487
446.497
444.752
443.046
443.664
447.145
451.968
453.135
453.201
451.632
448.886
445.149
438.335
999.794
830.649
664.884
573.03
542.884
541.341
557.277
573.357
576.343
562.447
533.328
508.494
484.132
468.484
458.5
452.1
451.546
454.164
453.786
451.868
450.234
452.611
455.95
459.544
459.55
458.9
456.49
452.927
447.75
440.54
1018.05
833.971
668.854
575.238
539.068
528.374
522.554
518.41
512.869
502.533
490.117
481.962
472.537
464.806
458.586
456.607
460.267
463.485
462.268
459.661
460.335
462.925
465.443
467.314
467.058
465.76
462.255
456.962
449.721
441.516
1040.82
837.572
672.692
582.416
543.7
527.253
517.009
508.07
500.662
492.646
485.351
480.503
474.248
469.487
467.515
469.291
473.862
474.339
471.437
470.224
472.092
474.344
475.484
475.303
473.833
471.332
466.86
460.594
453.545
444.501
1060.64
842.043
683.458
598.835
559.027
538.46
526.411
518.117
511.244
504.887
500.179
496.587
492.893
490.101
488.721
489.482
490.603
487.121
483.897
483.749
485.187
486.047
485.021
482.719
480.019
476.435
471.3
464.527
457.362
446.952
1077.12
851.647
703.713
626.123
589.947
571.179
560.724
555.339
550.826
548.077
544.246
539.025
532.662
525.392
518.533
515.506
509.857
503.205
499.409
498.782
498.621
497.119
493.143
489.062
485.286
481.036
475.348
468.143
459.795
448.498
1092.48
868.537
734.368
667.626
639.674
628.656
625.025
624.093
623.386
620.755
612.98
601.272
585.686
569.949
555.343
544.12
532.715
522.323
516.612
513.934
511.318
506.242
499.83
494.269
489.581
484.763
478.62
470.694
461.619
451.32
1109.35
893.369
777.089
725.284
708.324
705.716
708.976
711.611
712.245
705.998
691.318
671.085
646.078
619.622
593.688
572.73
554.822
541.721
533.481
527.905
521.865
513.693
505.32
498.379
492.687
487.392
480.77
472.724
464.234
453.689
1128.38
927.869
832.625
798.157
792.23
797.481
806.095
807.357
806.137
794.724
771.703
740.746
703.73
664.918
628.66
599.153
575.849
559.35
548.581
539.665
530.274
519.674
509.569
501.676
495.216
489.159
482.309
473.7
465.43
454.796
1146.83
973.835
900.258
881.148
883.179
898.443
906.19
904.465
895.457
872.881
838.735
796.544
749.028
700.921
657.396
621.367
594.097
574.47
560.839
548.733
535.953
523.371
512.871
504.262
497.225
490.364
483.052
474.293
466.078
455.704
1166.41
1027.23
977.782
967.307
977.992
995.263
999.419
991.75
969.801
934.517
889.997
838.559
783.082
728.463
680.487
640.072
609.11
587.324
570.577
554.503
539.54
526.232
515.371
506.411
498.902
491.356
483.617
475.01
466.648
456.732
1182.51
1084.82
1056.02
1051.04
1070.01
1083.74
1085.28
1066.96
1030.15
984.71
931.531
872.357
809.624
749.484
697.858
654.478
620.814
597.508
576.915
558.203
541.941
528.366
517.396
508.254
500.42
492.317
484.342
475.902
467.554
457.763
1201.4
1146.66
1131.52
1129.83
1150.64
1159.33
1158.2
1130.03
1080.84
1028.18
968.838
903.044
833.1
767.107
711.148
664.377
628.799
602.699
580.078
560.473
543.76
530.186
519.197
509.847
501.522
493.126
485.056
476.356
468.115
458.558
1225.03
1209.19
1203.55
1203.48
1219.26
1222.81
1215.94
1182.94
1128.47
1069.97
1006.91
935.914
859.927
787.674
725.356
672.516
633.07
604.954
582.261
562.157
545.139
531.12
519.883
510.679
501.759
493.582
485.662
477.08
468.511
459.049
1252.2
1269.89
1269.76
1268.21
1277.03
1277.24
1265.15
1228.42
1176.56
1114.32
1048.06
972.886
892.034
813.101
742.503
680.959
635.714
606.276
583.6
564.595
547.641
533.224
520.784
510.505
502.121
494.051
486.287
477.554
468.621
459.538
1275.71
1322.96
1329.84
1324.26
1327.88
1325.61
1310.09
1272.11
1221.03
1161.41
1089.07
1009.9
925.143
840.217
761.667
691.997
640.86
607.719
585.352
567.153
550.356
535.554
522.588
511.942
503.428
494.755
486.832
477.958
469.83
460.824
1265.56
1375.13
1386.64
1375.29
1374.27
1369.42
1351.25
1312.42
1260.5
1205.35
1129.47
1045.46
958.367
869.75
785.311
708.867
650.431
610.896
586.418
569.432
553.066
538.221
525.289
514.358
504.966
496.079
487.712
478.869
470.59
461.833
1286.16
1443.81
1444.35
1422.76
1416.4
1409.04
1389.06
1351.25
1301.15
1245.22
1170.96
1081.88
993.673
903.086
813.941
730.906
664.174
616.091
587.932
571.794
556.136
541.032
528.199
516.469
506.634
497.119
488.427
479.355
471.203
463.224
417.886
411.365
412.745
411.562
410.376
409.016
404.988
402.294
402.332
401.489
391.814
363.706
348.866
359.627
393.302
463.824
600.234
725.755
743.719
707.961
669.433
658.395
630.718
594.035
589.996
649.9
804.23
913.224
932.123
882.121
420.74
419.515
421.256
420.253
419.29
418.289
415.216
412.103
412.29
412.285
408.362
401.987
382.365
375.69
400.884
461.378
579.848
714.916
749.459
737.281
712.887
709.821
678.012
596.736
570.301
585.08
700.917
883.34
944.806
953.644
421.953
422.317
424.04
423.41
422.248
421.251
418.709
414.948
414.073
414.388
415.138
415.604
415.648
411.036
415.158
462.902
561.566
702.644
759.826
762.829
748.784
751.612
730.403
632.729
569.81
562.876
647.977
826.761
939.05
966.295
426.094
427.936
429.748
430.357
429.642
428.424
425.871
421.347
419.625
419.768
421.722
425.437
429.241
441.142
459.4
484.297
559.734
687.46
770.297
787.098
783.454
783.12
758.491
671.447
572.901
551.733
612.904
768.404
922.93
979.736
430.747
431.147
433.006
434.05
433.65
432.824
430.985
426.513
423.529
424.441
426.682
430.856
435.081
446.939
470.466
511.834
578.594
671.643
775.684
808.777
814.689
805.369
772.748
688.857
582.688
546.66
590.806
729.478
897.36
983.072
435.21
438.466
440.221
441.522
440.721
439.528
437.746
432.877
429.255
430.155
432.03
435.341
438.408
446.977
467.466
503.562
564.956
657.863
765.15
817.813
829.499
815.644
780.838
694.954
587.665
544.015
576.591
699.418
873.299
984.992
436.991
442.009
444.137
445.681
445.824
445.379
444.336
439.569
435.979
436.467
437.973
439.919
441.195
445.727
457.852
484.071
529.25
599.413
690.595
755.909
787.528
783.833
757.634
688.806
591.382
546.417
572.792
682.108
854.835
988.712
439.169
445.876
449.302
451.776
452.772
452.67
452.168
447.803
444.006
443.54
445.067
446.225
445.984
446.242
452.557
465.244
489.957
531.14
588.853
641.245
681.386
686.399
670.429
625.736
570.802
551.623
574.9
675.597
845.416
997.38
441.492
448.664
453.502
456.762
458.625
459.041
459.578
456.563
452.942
450.859
452.418
453.837
452.701
450.314
452.078
458.378
468.375
483.495
506.542
529.129
556.235
568.265
566.624
552.609
539.953
543.348
577.732
676.082
844.693
1013.43
442.558
450.709
457.635
462.4
465.508
466.535
467.421
466.082
463.495
461.19
460.717
462.849
462.942
459.347
456.739
458.725
464.796
472.619
482.028
489.852
502.371
511.619
517.894
522.683
528.973
540.481
578.646
677.641
847.665
1034.75
445.149
454.425
461.005
466.97
470.973
473.331
475.113
475.743
474.847
472.925
471.09
472.945
475.283
473.453
469.581
468.612
470.747
475.46
481.617
486.602
494.325
502.036
509.725
518.74
528.852
546.468
586.725
680.443
850.252
1058.18
447.403
457.938
464.563
471.303
475.665
479.119
482.231
485.207
486.83
486.067
484.482
484.639
489.053
492.229
490.617
491.292
493.402
496.453
500.493
504.17
508.706
514.963
521.965
529.903
541.966
563.472
604.506
691.518
853.9
1076.44
448.601
459.94
468.251
475.313
480.089
484.195
488.46
493.339
497.729
499.522
499.617
500.646
504.756
513.112
518.627
523.262
531.662
539.909
547.052
552.516
555.959
558.244
562.049
567.15
577.267
596.57
633.452
712.979
864.254
1091.78
450.655
461.217
470.662
478.507
484.007
488.551
493.835
500.174
506.841
512.165
515.052
518.563
524.232
535.795
549.329
562.903
579.709
597.815
614.354
626.251
633.597
635.073
634.766
634.864
637.966
648.624
676.79
744.87
882.148
1106.07
452.586
463.207
472.483
480.606
486.807
491.929
497.9
505.474
514.327
522.701
529.37
536.095
544.365
558.722
579.416
604.048
633.06
662.269
688.944
709.513
724.039
728.592
726.894
722.54
718.075
720.096
737.134
789.645
908.66
1123.25
453.337
464.106
473.46
482.297
488.818
494.564
501.072
509.416
519.803
530.665
541.116
551.13
562.735
580.629
606.908
640.813
680.563
722.401
761.292
792.952
816.155
826.66
827.018
824.018
813.115
807.011
812.892
848.053
945.289
1142.37
454.266
464.682
473.984
483.211
490.2
496.475
503.535
512.47
523.507
536.31
549.671
563.474
578.424
599.556
629.789
669.6
716.423
767.364
816.989
860.338
895.73
918.323
927.141
927.384
917.868
901.27
898.931
918.585
994.446
1160.59
455.446
465.299
474.471
483.622
491.107
498.048
505.334
514.701
526.054
539.778
555.222
572.442
591.256
614.748
648.006
691.081
741.785
798.879
856.438
909.311
955.452
991.954
1014.73
1022.01
1017.23
998.506
987.763
998.714
1048.76
1179.67
456.545
466.122
474.819
483.829
491.588
499.296
506.8
516.218
527.816
541.815
558.518
577.994
600.826
626.037
660.967
706.081
759.689
822.065
886.77
947.603
1002.26
1049.61
1088.02
1106.87
1105.1
1090.97
1072.64
1078.81
1108.03
1195.7
457.585
466.852
475.137
484.068
491.98
500.043
507.975
517.402
529.063
542.929
560.003
580.696
604.973
632.187
668.71
716.889
774.493
842.446
914.227
981.784
1042.48
1097.38
1148.37
1176.93
1178.89
1171.09
1151.8
1155.6
1171.04
1215.09
458.44
467.496
475.716
484.496
492.204
500.24
508.845
518.227
529.657
543.817
561.423
581.78
605.903
635.052
675.054
728.963
792.698
866.699
944.416
1017.39
1082.14
1142.77
1198.06
1232.31
1240.72
1238.32
1224.91
1228.04
1233.76
1239.06
458.953
467.817
476.278
484.929
492
500.006
508.3
518.588
531.179
546.017
563.702
583.209
606.053
637.245
682.456
744.437
816.093
896.515
978.939
1056.45
1125.24
1188.98
1241.91
1279.99
1293.65
1294.74
1288.66
1293.82
1294.11
1266.65
459.121
467.96
476.559
485.265
492.923
501.138
509.885
520.422
533.128
548.253
565.807
584.584
607.174
641.341
692.043
761.614
840.938
927.185
1013.4
1095.43
1170.97
1231.65
1284.35
1323.82
1340.81
1344.68
1343.61
1352.7
1346.15
1290.58
460.088
468.344
476.94
485.771
494.147
502.662
511.811
523.107
535.569
550.78
567.75
585.484
609.618
649.399
707.12
783.18
868.247
958.078
1046.83
1134.3
1212.46
1269.98
1323.6
1364
1383.5
1390.09
1393.42
1407.55
1396.2
1279.81
461.562
469.564
477.663
486.483
495.313
504.344
513.946
525.832
538.446
553.845
569.73
586.392
613.821
661.951
727.922
810.501
900.135
991.843
1082.08
1174.9
1252.19
1309.98
1361.54
1400.9
1422.06
1430.89
1438.44
1461.15
1461.24
1300.36
782.448
750.78
736.655
718.273
702.694
689.223
677.012
670.34
667.508
666.913
669.639
677.834
691.507
710.96
735.814
765.444
799.862
837.612
879.194
921.427
963.388
1003.12
1039.64
1071.56
1098.8
1122.93
1143.3
1159.57
1173.27
1185.6
1195.27
1203.18
1209.28
1213.54
1216.08
1216.73
1215.34
1211.9
1206.34
1198.73
1189.07
1177.14
1162.38
1144.65
1123.77
1099.85
1073.97
1046.53
1018.28
989.339
959.43
929.192
899.531
870.567
842.609
816.094
791.091
767.77
746.089
725.471
705.823
687.066
669.343
653.145
638.668
625.927
614.815
605.09
596.586
589.162
582.71
577.13
572.313
568.186
564.608
561.383
558.339
555.348
552.406
549.48
546.576
543.64
540.728
537.806
535.048
532.301
529.844
527.466
525.269
523.229
521.188
519.239
517.15
514.727
512.043
508.642
505.254
501.685
498.154
494.954
491.977
489.133
486.619
484.089
481.598
480.028
479.385
478.299
476.965
476.597
476.832
478.396
480.532
480.357
479.663
479.204
480.216
479.723
478.108
475.838
472.29
468.549
467.424
465.742
463.49
946.626
917.871
885.321
852.064
822.452
796.593
775.595
760.583
751.595
747.736
750.22
760.662
779.257
806.965
844.959
893.966
952.437
1016.57
1083.34
1149.02
1210.69
1265.96
1314.08
1353.99
1386.49
1412.65
1433.18
1448.84
1460.09
1468.81
1474.82
1478.5
1480.05
1479.9
1478.41
1475.48
1471.05
1465.09
1457.66
1448.73
1438.23
1425.94
1411.61
1395
1376.1
1355.03
1332.27
1307.85
1282.09
1255.15
1227.19
1198.49
1169.18
1139.44
1109.46
1079.3
1049.05
1018.78
988.473
957.616
925.954
892.361
856.532
820.131
785.14
752.563
722.529
695.152
670.856
650.093
633.016
619.375
608.629
600.029
592.87
586.651
581.105
576.061
571.358
566.848
562.421
557.963
553.52
549.129
545.017
541.163
537.838
534.916
532.403
530.192
528.01
525.805
523.398
520.564
517.435
513.958
510.699
507.114
503.76
500.559
497.694
494.698
491.946
489.373
487.118
484.942
484.202
483.32
482.264
482.029
482.224
483.852
486.136
485.912
485.453
485.676
486.863
486.044
484.188
482.176
478.658
475.301
474.405
473.093
471.167
1125.29
1100.05
1065.37
1027.68
992.29
960.892
934.698
914.906
902.487
897.817
902.033
916.299
941.788
979.083
1028.06
1087.6
1154.87
1225.52
1295.82
1362.41
1423
1475.96
1520.99
1557.01
1585.27
1607.41
1624.1
1636.2
1644.61
1649.99
1653.33
1654.94
1655.43
1654.54
1652.32
1648.88
1644.3
1638.62
1631.9
1624.13
1615.16
1604.87
1593.17
1579.98
1565.23
1548.94
1531.33
1512.5
1492.58
1471.7
1450.01
1427.66
1404.82
1381.64
1358.19
1334.57
1310.85
1287.02
1262.96
1238.22
1212.15
1183.42
1150.87
1114.15
1073.33
1029.16
982.076
932.328
881.586
832.845
788.77
750.524
718.237
691.499
669.428
651.198
636.087
623.402
612.445
602.663
593.764
585.691
578.364
571.667
565.588
560.06
555.128
550.774
546.904
543.489
540.345
537.366
534.406
531.294
527.917
524.381
521.037
517.49
514.033
510.739
507.763
504.805
502.018
499.194
496.742
494.397
493.147
492.264
490.951
490.237
490.234
491.335
492.886
493.197
492.892
493.393
494.355
493.18
491.296
489.153
486.142
482.807
481.576
480.497
479.077
1311.7
1289.73
1256.16
1218.27
1181.67
1149.35
1122.92
1103.4
1091.91
1089.51
1097.72
1117.2
1148.05
1190.16
1242.45
1302.8
1368.04
1434.58
1498.42
1557.69
1610.68
1656.5
1694.71
1724.06
1747.15
1764.75
1777.46
1786.2
1791.8
1794.97
1796.02
1795.97
1795.05
1793.35
1790.87
1787.58
1783.47
1778.53
1772.61
1765.77
1757.98
1749.17
1739.39
1728.62
1716.89
1704.26
1690.78
1676.56
1661.7
1646.35
1630.61
1614.59
1598.39
1582.07
1565.7
1549.3
1532.83
1516.21
1499.22
1481.47
1462.4
1441.2
1417.2
1389.98
1359.53
1326.02
1289.17
1248.37
1203.03
1152.76
1098.01
1040.43
982.799
927.583
876.612
831.022
791.159
756.581
726.414
699.892
676.772
656.883
639.877
625.194
612.339
600.959
590.803
581.823
574.074
567.381
561.778
556.858
552.476
548.437
544.643
540.781
536.681
532.423
528.507
524.734
521.396
518.348
515.403
512.434
509.68
507.163
505.164
503.498
501.474
499.862
499.268
500.133
500.566
502.295
502.148
502.552
503.277
501.975
499.922
497.858
494.926
491.306
490.188
489.166
487.934
1493.49
1474.05
1442.55
1407.01
1372.71
1342.7
1318.61
1301.43
1292.95
1293.85
1304.97
1326.58
1358.41
1399.57
1448.4
1502.6
1559.43
1616.23
1670.68
1719.87
1762.91
1800.07
1830.16
1854.1
1872.95
1886.95
1896.81
1903.39
1907.43
1909.49
1910.03
1909.3
1907.92
1906.05
1903.64
1900.65
1897.02
1892.68
1887.56
1881.65
1874.95
1867.46
1859.09
1849.97
1840.26
1830.06
1819.51
1808.67
1797.63
1786.48
1775.28
1764.08
1752.9
1741.75
1730.65
1719.55
1708.35
1696.89
1684.93
1672.16
1658.17
1642.45
1624.66
1604.54
1581.95
1556.7
1528.38
1496.42
1460.25
1419.21
1373.79
1325.1
1274.34
1222.69
1171.05
1119.9
1069.45
1019.54
970.592
923.529
879.15
838.269
801.16
767.702
737.549
710.535
686.348
665.024
646.591
630.884
616.896
605.702
596.134
587.749
579.784
572.301
564.996
558.201
552.293
546.8
541.743
537.249
533.079
529.275
525.863
522.947
520.36
517.828
515.505
513.007
511.247
511.501
512.156
512.684
512.551
512.379
512.735
511.393
509.024
506.827
503.688
499.776
498.925
497.716
496.44
1662.81
1644.46
1614.69
1581.58
1550.76
1524.46
1503.25
1488.79
1483.07
1485.66
1497.25
1517.84
1546.93
1583.41
1625.59
1671.37
1718.54
1764.99
1809.14
1849.38
1883.18
1912.14
1936.16
1955.43
1970.29
1981.39
1989.41
1994.93
1998.49
2000.54
2001.37
2001.29
2000.28
1998.6
1996.55
1993.94
1990.74
1986.87
1982.27
1976.94
1970.89
1964.19
1956.96
1949.3
1941.35
1933.28
1925.2
1917.22
1909.37
1901.64
1894.02
1886.47
1878.95
1871.47
1863.85
1856
1847.77
1838.99
1829.42
1819
1807.48
1794.29
1779.35
1762.49
1743.58
1722.44
1698.77
1672.17
1642.3
1608.99
1572.35
1533.17
1491.84
1448.8
1404.46
1359.14
1312.55
1265.59
1218.58
1171.79
1125.64
1080.17
1035.89
992.837
951.076
910.975
872.711
836.964
803.497
772.55
744.512
719.266
696.486
676.36
658.464
642.388
627.307
613.115
600.223
587.942
576.543
566.839
558.479
551.624
546.348
541.699
537.607
534.3
531.261
527.813
524.839
524.313
524.975
524.83
524.508
523.408
523.259
521.88
519.419
516.593
513.81
510.271
509.072
507.429
505.83
1812.5
1794.96
1766.8
1737.04
1709.43
1685.42
1665.94
1653.63
1649.41
1652.4
1663.09
1681.3
1706.41
1737.3
1772.44
1810.08
1848.42
1885.85
1920.95
1952.23
1979.57
2002.84
2021.78
2036.92
2048.77
2057.88
2064.78
2069.89
2073.61
2076.25
2077.91
2078.64
2078.59
2077.74
2076.06
2073.73
2070.86
2067.33
2063.1
2058.23
2052.8
2046.95
2040.86
2034.71
2028.63
2022.76
2017.16
2011.84
2006.79
2001.94
1997.15
1992.26
1987.18
1982.03
1976.47
1970.22
1963.24
1955.41
1946.6
1936.51
1925.05
1911.89
1897.47
1881.46
1863.71
1844.07
1822.41
1798.57
1772.57
1744.41
1714.31
1682.09
1648
1612.38
1575.46
1537.39
1498.22
1457.97
1416.85
1375.05
1332.75
1290.16
1247.31
1204.53
1162.11
1120.06
1078.56
1038.08
998.535
960.091
922.948
886.889
852.816
821.55
792.247
764.936
739.396
715.545
693.663
672.903
652.505
633.157
615.504
599.464
586.006
574.802
564.512
556.173
550.485
545.581
540.776
538.207
538.339
537.705
536.662
536.268
534.733
533.374
530.558
527.611
524.844
522.626
520.732
518.529
516.192
1940.32
1922.84
1896.82
1869.82
1844.26
1821.76
1803.66
1792.92
1789.36
1791.96
1801.27
1816.98
1838.39
1864.36
1893.54
1924.47
1955.24
1984.94
2012.98
2038.46
2060.58
2079.06
2094.22
2106.54
2116.52
2124.56
2131.05
2136.28
2140.49
2143.81
2146.23
2148.01
2148.85
2148.89
2148.07
2146.42
2143.86
2140.57
2136.67
2132.29
2127.6
2122.85
2118.24
2114
2110.24
2107
2104.19
2101.71
2099.54
2097.3
2094.79
2091.85
2088.32
2083.9
2078.73
2072.85
2066.04
2058.14
2049.03
2038.62
2026.83
2013.61
1998.98
1982.9
1965.32
1946.24
1925.64
1903.2
1879.26