/*--------------------------------*- C++ -*----------------------------------*\
| =========                 |                                                 |
| \\      /  F ield         | OpenFOAM: The Open Source CFD Toolbox           |
|  \\    /   O peration     | Version:  2112                                  |
|   \\  /    A nd           | Website:  www.openfoam.com                      |
|    \\/     M anipulation  |                                                 |
\*---------------------------------------------------------------------------*/
FoamFile
{
    version     2.0;
    format      ascii;
    arch        "LSB;label=32;scalar=64";
    class       volScalarField;
    location    "0.0089";
    object      nut;
}
// * * * * * * * * * * * * * * * * * * * * * * * * * * * * * * * * * * * * * //

dimensions      [0 2 -1 0 0 0 0];

internalField   nonuniform List<scalar> 
13875
(
0.0511675
0.0366254
0.0343661
0.0343291
0.0343007
0.0343352
0.0342984
0.0342807
0.034296
0.0342937
0.0342896
0.034296
0.0343237
0.0343415
0.0343303
0.0342932
0.0342675
0.0342897
0.0343025
0.0343265
0.0343038
0.0343344
0.0343819
0.0365705
0.0514289
0.0532618
0.0341198
0.0322227
0.0321072
0.0320662
0.0320885
0.0320479
0.0320298
0.0320408
0.0320306
0.0320233
0.0320472
0.0320553
0.0320725
0.0320603
0.032047
0.0320036
0.0320346
0.032046
0.0320758
0.0320636
0.0321024
0.0322284
0.034056
0.0536383
0.0564569
0.0335616
0.0318033
0.0315937
0.031573
0.0315767
0.0314878
0.031448
0.0314533
0.0314408
0.0314256
0.0314594
0.0315312
0.0315559
0.0315346
0.0314645
0.031408
0.0314453
0.0314781
0.0315675
0.0315644
0.0315802
0.0317948
0.033495
0.056595
0.0590704
0.0332327
0.03149
0.0312779
0.031266
0.0312623
0.031158
0.0311043
0.0311104
0.0311075
0.031086
0.0311086
0.0312142
0.03124
0.0312183
0.0311168
0.0310728
0.0311026
0.0311465
0.0312538
0.0312553
0.0312625
0.0314852
0.0331687
0.0591439
0.0611257
0.033004
0.0312469
0.0310042
0.0309889
0.030981
0.0308672
0.0308115
0.0308233
0.030823
0.0307985
0.030818
0.0309252
0.0309546
0.0309298
0.0308272
0.0307864
0.0308148
0.0308594
0.0309685
0.0309767
0.0309899
0.0312305
0.0329186
0.0612576
0.0628183
0.0328481
0.03109
0.0307725
0.0307562
0.0307333
0.0306043
0.0305477
0.0305627
0.0305634
0.030536
0.0305531
0.0306623
0.0306947
0.0306677
0.0305626
0.030526
0.0305533
0.0305999
0.0307199
0.0307436
0.0307612
0.0310591
0.0328222
0.0629748
0.0648267
0.0330729
0.0311045
0.0306334
0.0305717
0.0305268
0.030374
0.0303128
0.0303278
0.0303282
0.0302995
0.0303139
0.0304257
0.0304586
0.0304287
0.030322
0.0302929
0.0303205
0.0303762
0.030512
0.03056
0.0306333
0.0311134
0.0330703
0.0648698
0.067093
0.0339363
0.0314253
0.0306504
0.0304874
0.0303751
0.0301882
0.0301127
0.030123
0.0301209
0.0300922
0.0300999
0.0302158
0.0302517
0.0302191
0.0301079
0.030089
0.0301205
0.0301898
0.0303572
0.0304672
0.0306298
0.0313925
0.0338959
0.067363
0.0736443
0.0362957
0.0320404
0.0308452
0.0304761
0.0302805
0.0300429
0.029951
0.0299575
0.0299504
0.0299227
0.0299233
0.0300435
0.0300828
0.0300495
0.0299349
0.0299229
0.0299579
0.0300442
0.0302598
0.0304503
0.0308023
0.0319354
0.0359996
0.0741935
0.0828974
0.0384701
0.0327351
0.0311885
0.0305808
0.0302371
0.0299669
0.0298695
0.0298636
0.0298482
0.0298237
0.0298203
0.029939
0.0299816
0.02995
0.0298464
0.0298325
0.0298727
0.0299655
0.0302203
0.0305504
0.0310809
0.0326233
0.0381049
0.083546
0.0907115
0.0441326
0.0346472
0.0319947
0.0308169
0.0303508
0.0300354
0.0299065
0.0298742
0.0298467
0.0298221
0.0298165
0.0299281
0.0299732
0.0299506
0.0298717
0.029856
0.0299035
0.0300355
0.030304
0.0307945
0.0318815
0.0343625
0.0432639
0.0893467
0.0950435
0.054522
0.0403635
0.0334469
0.0318699
0.0308314
0.0303298
0.0301376
0.030061
0.0300178
0.0299898
0.0299863
0.0300807
0.0301287
0.0301208
0.0300721
0.0300642
0.0301369
0.030322
0.0308367
0.0318
0.0332279
0.0398465
0.0533637
0.0942569
0.0865809
0.068794
0.0515755
0.0417545
0.0343776
0.03193
0.0312874
0.0308267
0.030639
0.0305476
0.0305
0.0304913
0.0305624
0.0306103
0.0306256
0.030623
0.0306765
0.0308709
0.031332
0.0320045
0.0347648
0.0415759
0.0509414
0.0687667
0.0866006
0.0795733
0.0659532
0.0581373
0.0657163
0.0416706
0.0372348
0.0336724
0.0324332
0.0320354
0.0319701
0.0319293
0.0319215
0.0319834
0.0320283
0.0320582
0.0320878
0.0321396
0.0325349
0.0340816
0.038262
0.0432115
0.0657131
0.0578303
0.0661726
0.0816098
0.0752945
0.0642775
0.056579
0.0606744
0.0560632
0.0540664
0.0444821
0.0388279
0.0367375
0.0358836
0.035496
0.0353727
0.0353939
0.0354495
0.0355602
0.03586
0.0366615
0.0388972
0.0451692
0.0552377
0.0557371
0.0612522
0.0565997
0.0641531
0.0746629
0.0671376
0.0618328
0.0543205
0.057332
0.0560129
0.0572098
0.0545448
0.0530911
0.0508121
0.0483549
0.0474662
0.0471319
0.0470433
0.0471207
0.0472808
0.0477704
0.0504026
0.0542848
0.0554588
0.0577212
0.0556111
0.0580124
0.0543135
0.0614967
0.0664799
0.0623806
0.0581971
0.0524905
0.0550991
0.0568068
0.061168
0.0680889
0.0728868
0.0699895
0.0707725
0.0730232
0.0744928
0.0752523
0.0749211
0.0733675
0.0725149
0.0699593
0.0727992
0.068668
0.0612004
0.0562924
0.0553018
0.0519646
0.0575755
0.0624371
0.0569844
0.0546862
0.0531139
0.0569263
0.0599072
0.0629427
0.0709268
0.0791333
0.0742767
0.0704406
0.0692586
0.0693726
0.0698858
0.0696025
0.0697447
0.0725868
0.0738591
0.0767011
0.0708548
0.0641951
0.0609361
0.0576465
0.0528256
0.054263
0.0567889
0.05136
0.054162
0.0559106
0.0618715
0.0668624
0.064713
0.0673958
0.0752253
0.0742584
0.0704834
0.0686997
0.0683328
0.0684401
0.0689157
0.0697934
0.0716867
0.0728433
0.0731099
0.0677231
0.0667227
0.0697123
0.0630424
0.0562637
0.0544073
0.0521559
0.0493667
0.057367
0.0603972
0.0657861
0.0686275
0.0644331
0.0639268
0.0695784
0.0717994
0.0704288
0.0687096
0.0672003
0.0664973
0.0680427
0.0699898
0.0709366
0.069907
0.0678153
0.0645482
0.0665654
0.0707901
0.0664721
0.0608846
0.0576413
0.0487816
0.077595
0.0888001
0.0774315
0.065309
0.0649387
0.0614687
0.060702
0.0655879
0.0693162
0.0694357
0.0676663
0.0652259
0.0640622
0.0663683
0.0690249
0.0694917
0.0672242
0.0640991
0.061466
0.0634948
0.0667985
0.0669358
0.0799103
0.0919074
0.0825167
0.128438
0.161493
0.0899826
0.061996
0.0608046
0.0584578
0.0580403
0.0626027
0.0669044
0.0677804
0.0659073
0.0628406
0.0614022
0.0641097
0.0672594
0.0675926
0.064758
0.0613771
0.0587248
0.060234
0.0623404
0.0638067
0.0930822
0.165364
0.134636
0.152563
0.14488
0.0840184
0.0591248
0.0574413
0.0558846
0.0556744
0.0601578
0.0646113
0.0657674
0.0637342
0.0603365
0.0586929
0.0615333
0.0650408
0.065513
0.0624694
0.0590932
0.0562373
0.0573104
0.0586913
0.0607023
0.0838322
0.144032
0.153342
0.160941
0.145281
0.0766118
0.0569453
0.0546396
0.0535641
0.0536357
0.0579248
0.0623865
0.0635834
0.0613219
0.0577293
0.0561153
0.0590009
0.0627314
0.0634289
0.0602292
0.0568429
0.0541603
0.0548273
0.0558808
0.0585782
0.0776689
0.150285
0.160553
0.16665
0.146229
0.0725713
0.055383
0.0525808
0.0516103
0.051982
0.0559525
0.0602198
0.0613309
0.0589732
0.0553151
0.0537266
0.056586
0.0604521
0.0612578
0.0581497
0.0548397
0.0523673
0.0527205
0.0538421
0.057019
0.0744229
0.154428
0.167357
0.173802
0.150347
0.0699033
0.0539066
0.0509834
0.0499604
0.0506312
0.0542261
0.0581524
0.0591112
0.0567509
0.0530989
0.0515315
0.0542892
0.0581305
0.0590622
0.0562301
0.0530786
0.0507828
0.0508158
0.0521595
0.0553394
0.0715402
0.157493
0.177054
0.18349
0.14658
0.0667433
0.0524995
0.049752
0.0486211
0.049494
0.0527121
0.0561522
0.0568282
0.0545054
0.0510301
0.0495472
0.0522536
0.0560239
0.0569917
0.0544833
0.0515409
0.0494159
0.0492947
0.0509219
0.0539995
0.0690333
0.15561
0.184344
0.189284
0.145846
0.0648788
0.0514378
0.0488065
0.0475755
0.0484969
0.0513484
0.0543225
0.0547608
0.0525164
0.0491807
0.0477398
0.050328
0.0539483
0.0549992
0.0528829
0.0502066
0.0482648
0.0480958
0.0498149
0.0527864
0.0672071
0.155766
0.191872
0.194363
0.147767
0.0637812
0.0505703
0.0480287
0.0468314
0.0476307
0.0501122
0.0526321
0.0528408
0.0506978
0.047519
0.0461058
0.0485471
0.051957
0.0530522
0.051378
0.0490118
0.047266
0.0471208
0.0488097
0.0517195
0.0652979
0.150804
0.199866
0.201277
0.144913
0.0628338
0.0498744
0.0472538
0.0462376
0.0469681
0.0490068
0.0509967
0.050937
0.048895
0.0459457
0.044622
0.0470065
0.0502763
0.0513712
0.050009
0.0479434
0.0464427
0.0463522
0.0478985
0.0509448
0.0645846
0.151263
0.203622
0.203418
0.141011
0.0622815
0.0494632
0.0465712
0.0456738
0.0463468
0.0479922
0.0495382
0.0492793
0.0473476
0.0445666
0.0432862
0.0455438
0.0486177
0.0497179
0.0487367
0.0470218
0.0457778
0.0456733
0.0470159
0.0503287
0.0636621
0.146376
0.208871
0.205858
0.140732
0.0622094
0.0493436
0.045949
0.0451013
0.0457567
0.0470845
0.0482363
0.0478113
0.0459677
0.0433177
0.0420775
0.0442018
0.0471262
0.0482654
0.0475799
0.04619
0.045147
0.045
0.0462389
0.0500041
0.0630945
0.143271
0.21139
0.21001
0.136186
0.0618909
0.0494087
0.0454738
0.0446284
0.0451587
0.0462257
0.046967
0.0463816
0.0446295
0.0421559
0.0409933
0.0430495
0.0458356
0.0469538
0.0465226
0.045428
0.0445168
0.0444172
0.0456526
0.0499422
0.063098
0.142555
0.213281
0.211097
0.133734
0.0617053
0.049708
0.0451713
0.0441862
0.0445168
0.0454255
0.0458479
0.0451485
0.0434817
0.0411215
0.0400038
0.0419386
0.0446031
0.0457477
0.0455367
0.0447227
0.043903
0.0438921
0.0452313
0.0500665
0.0631825
0.138841
0.21587
0.212132
0.133327
0.0614
0.0500738
0.045214
0.0437862
0.0439291
0.044644
0.0448242
0.0440205
0.0424333
0.0401853
0.0391186
0.0409476
0.043477
0.0446255
0.0446112
0.0440261
0.0433304
0.0434989
0.0451296
0.0504022
0.0628053
0.136458
0.216711
0.214241
0.131582
0.0610062
0.0504593
0.045466
0.0434745
0.0433752
0.0438645
0.0438526
0.042973
0.0414358
0.0393052
0.0383028
0.0400635
0.042522
0.043666
0.0437658
0.0433268
0.0428113
0.0431412
0.0453354
0.0508727
0.0625902
0.136724
0.217599
0.214638
0.131826
0.0608449
0.0512707
0.0459389
0.043297
0.0428965
0.0431321
0.0429452
0.0420395
0.0405651
0.0385297
0.0375705
0.0392292
0.0415812
0.0427219
0.0429455
0.0426778
0.0423384
0.0429067
0.0457217
0.0515983
0.0621541
0.135293
0.219018
0.214711
0.134283
0.0607112
0.0520361
0.0465685
0.0433363
0.0424406
0.0424476
0.042112
0.0411977
0.0397833
0.0378194
0.0368974
0.038463
0.0407433
0.0418764
0.0421626
0.0420719
0.0418942
0.0429087
0.0463539
0.0523665
0.0617238
0.13646
0.218986
0.215124
0.134168
0.0601634
0.052226
0.0474415
0.0435968
0.042107
0.0418287
0.0413146
0.0403794
0.03902
0.0371579
0.0362914
0.0378021
0.0399981
0.0410987
0.0414591
0.0415335
0.0415579
0.0431006
0.0472389
0.0527243
0.0612976
0.139628
0.218505
0.214291
0.136115
0.0596466
0.052219
0.0485558
0.0440376
0.0419332
0.0412994
0.0406212
0.0396677
0.0383608
0.0365575
0.0357267
0.037154
0.0392848
0.0403739
0.0407932
0.0410767
0.0414154
0.0435202
0.0481976
0.0526213
0.0608063
0.140932
0.21823
0.213799
0.138656
0.0594405
0.0520989
0.0499297
0.0447106
0.0419657
0.0409171
0.0400139
0.0390155
0.0377451
0.0360036
0.0352141
0.03657
0.038613
0.0397015
0.0402213
0.0407401
0.0414918
0.0441474
0.0498302
0.0525314
0.0604483
0.143053
0.21706
0.213945
0.140467
0.0591376
0.0516659
0.0505398
0.0455616
0.0421346
0.0407384
0.0395157
0.0384196
0.0371608
0.0354771
0.0347312
0.0360386
0.0380459
0.0391297
0.0397562
0.0405645
0.041674
0.0451077
0.0509728
0.0523643
0.0608979
0.145425
0.216423
0.213197
0.142742
0.0591268
0.0511225
0.0505322
0.0469326
0.0425265
0.0407287
0.0391721
0.037911
0.0366433
0.0350045
0.0342902
0.0355275
0.0374755
0.0385956
0.0394079
0.0405774
0.0420644
0.0463449
0.0510192
0.0518015
0.0606647
0.147157
0.216301
0.212656
0.145099
0.0601409
0.0506185
0.050161
0.0486046
0.0432586
0.0408092
0.0390137
0.0375309
0.036198
0.0345667
0.0338742
0.0350531
0.0369742
0.0381578
0.0392134
0.0407037
0.0428357
0.0483214
0.0506967
0.0512091
0.0610069
0.149354
0.215619
0.212409
0.147127
0.0601328
0.0500756
0.0495612
0.0494307
0.0445525
0.0410756
0.0389557
0.0372852
0.0358084
0.034171
0.0335043
0.0346474
0.0365683
0.0378709
0.0391665
0.0410123
0.0443324
0.0495289
0.0501212
0.0508163
0.0623505
0.151708
0.215048
0.211478
0.148951
0.0612864
0.0497785
0.0488824
0.0491332
0.0467144
0.0417771
0.0390429
0.0372134
0.0355897
0.0338689
0.0331906
0.0343076
0.0362974
0.0377569
0.0392169
0.0416668
0.0464611
0.0492954
0.049424
0.0503705
0.0630903
0.153536
0.214593
0.210408
0.150811
0.0628297
0.0497061
0.048303
0.0486457
0.0479638
0.043447
0.0392959
0.0371842
0.0355013
0.0337064
0.0329338
0.0341096
0.0361684
0.0377249
0.0394222
0.043246
0.0479542
0.0488007
0.0487849
0.0501593
0.0640759
0.155068
0.213524
0.208394
0.151885
0.0635325
0.0496074
0.0478205
0.0480228
0.0476967
0.0457399
0.0400966
0.0372409
0.0354718
0.0336452
0.0328052
0.0340401
0.0361423
0.0377882
0.0402081
0.0456229
0.0478548
0.0481339
0.0482788
0.0502633
0.0656533
0.156065
0.211126
0.205002
0.151835
0.0644388
0.0496908
0.047447
0.04732
0.0472701
0.0472777
0.0418833
0.037557
0.0355102
0.0336465
0.0328029
0.0340262
0.0361525
0.0380418
0.0418519
0.0474385
0.0474321
0.0473814
0.0478214
0.0502831
0.0660982
0.155973
0.207782
0.196154
0.14865
0.0651938
0.0497797
0.0471521
0.0467276
0.0467156
0.0470927
0.0445034
0.0386819
0.0357277
0.0336825
0.0328235
0.0340419
0.0363113
0.0390175
0.0444837
0.04747
0.0468892
0.0467462
0.0474399
0.0502431
0.0662978
0.152656
0.198899
0.358905
1.38455
1.7869
1.80012
1.6942
1.56044
1.41859
1.2568
1.08523
0.912763
0.755919
0.62313
0.527743
0.468399
0.43348
0.41387
0.401553
0.392709
0.38534
0.377721
0.368504
0.357686
0.345218
0.330794
0.314071
0.294035
0.268478
0.2332
0.179054
0.112886
0.343594
1.46615
1.87446
1.87874
1.75676
1.61482
1.46568
1.30289
1.12879
0.950638
0.786845
0.647515
0.545906
0.48022
0.439845
0.415895
0.40051
0.389675
0.380821
0.371971
0.361929
0.350894
0.338625
0.324522
0.307893
0.288121
0.262933
0.22802
0.174826
0.111403
0.367054
1.61881
1.96423
1.94434
1.80454
1.65097
1.49452
1.33491
1.16339
0.986559
0.82008
0.676265
0.568385
0.494825
0.448025
0.419232
0.400524
0.387407
0.376148
0.366008
0.355594
0.344484
0.332404
0.318486
0.302125
0.282581
0.257787
0.223275
0.171048
0.110303
0.387503
1.7074
2.05945
2.0217
1.86284
1.69553
1.53298
1.37525
1.20741
1.03334
0.862415
0.712238
0.596483
0.513417
0.459112
0.424665
0.402098
0.38585
0.372894
0.361619
0.35075
0.339561
0.327564
0.31377
0.297564
0.278031
0.25339
0.219121
0.167787
0.10947
0.396649
1.78672
2.15771
2.10255
1.92387
1.74252
1.57477
1.41618
1.25096
1.08096
0.909702
0.753464
0.628256
0.535771
0.472937
0.431925
0.404712
0.385341
0.370526
0.358174
0.346971
0.335715
0.323713
0.309901
0.293671
0.274004
0.249465
0.215545
0.164659
0.108566
0.405094
1.87832
2.26059
2.1858
1.98579
1.79052
1.61738
1.45575
1.29334
1.12788
0.957089
0.79715
0.663613
0.561212
0.489162
0.440782
0.408553
0.386183
0.36948
0.356096
0.344356
0.332858
0.320648
0.30668
0.2903
0.270614
0.245995
0.212003
0.161465
0.107623
0.415235
1.97197
2.36344
2.26937
2.0484
1.84149
1.66135
1.4968
1.33631
1.1746
1.00532
0.843745
0.703086
0.590371
0.507982
0.451596
0.41397
0.388442
0.369751
0.355159
0.342638
0.330705
0.318201
0.303952
0.287308
0.267581
0.242784
0.208209
0.158388
0.106655
0.425905
2.06789
2.46742
2.35785
2.11493
1.89499
1.70836
1.54242
1.38292
1.22319
1.0558
0.894501
0.747067
0.623763
0.530476
0.465164
0.421605
0.392356
0.371324
0.355207
0.341653
0.329242
0.316138
0.301502
0.284623
0.264726
0.239625
0.204575
0.155418
0.105756
0.436755
2.15994
2.57234
2.44821
2.18527
1.95309
1.76162
1.59434
1.43554
1.27613
1.11138
0.949433
0.797263
0.663706
0.558291
0.482704
0.43202
0.398152
0.374165
0.35609
0.34125
0.328285
0.314388
0.299295
0.282278
0.262081
0.236496
0.201069
0.152588
0.104947
0.446025
2.25009
2.67666
2.54169
2.26242
2.01833
1.8233
1.65456
1.49631
1.33645
1.17379
1.01058
0.854643
0.711847
0.593395
0.505948
0.4461
0.406175
0.378293
0.357717
0.341222
0.326912
0.31295
0.297471
0.28029
0.259639
0.233442
0.197829
0.149988
0.104275
0.454486
2.33518
2.77948
2.63959
2.34761
2.09289
1.89499
1.72464
1.56729
1.40599
1.24444
1.08085
0.920737
0.769327
0.638076
0.53694
0.465345
0.417237
0.384177
0.360275
0.341803
0.326008
0.311506
0.296056
0.278504
0.257262
0.230545
0.194891
0.147654
0.103719
0.462677
2.41592
2.88218
2.74321
2.44236
2.17858
1.97749
1.80498
1.64709
1.4855
1.3248
1.16091
0.997282
0.838381
0.694639
0.577971
0.491862
0.432868
0.392759
0.364624
0.343634
0.326392
0.310921
0.294946
0.277202
0.255242
0.228016
0.192148
0.145548
0.103269
0.471794
2.49718
2.98549
2.85071
2.54619
2.27573
2.07014
1.89571
1.73465
1.57417
1.41507
1.2518
1.08541
0.920039
0.764738
0.631466
0.528108
0.454992
0.405296
0.3716
0.347185
0.3278
0.310784
0.29388
0.275362
0.253143
0.225646
0.189504
0.14356
0.102898
0.480426
2.57986
3.08902
2.95926
2.65617
2.38277
2.17406
1.9965
1.8313
1.67153
1.51477
1.35268
1.1851
1.01449
0.849239
0.699494
0.576828
0.486057
0.423301
0.381507
0.352535
0.330041
0.310983
0.292997
0.27366
0.25099
0.223213
0.186924
0.14168
0.10262
0.488085
2.66021
3.18954
3.06835
2.76998
2.49805
2.2877
2.10654
1.93637
1.77765
1.62374
1.46313
1.29536
1.12122
0.947946
0.783292
0.640434
0.528716
0.448864
0.395864
0.359441
0.333091
0.311985
0.292563
0.272014
0.248873
0.220845
0.184522
0.140049
0.102461
0.493998
2.73154
3.28406
3.17785
2.8881
2.61965
2.40709
2.219
2.048
1.89403
1.74357
1.58504
1.41732
1.24103
1.06038
0.883083
0.720712
0.58544
0.484788
0.415599
0.369591
0.338081
0.31371
0.29224
0.270741
0.247033
0.218722
0.182361
0.138743
0.102439
0.499531
2.79335
3.36868
3.28417
3.0098
2.74681
2.53197
2.33782
2.16886
2.02075
1.87412
1.71784
1.55056
1.37273
1.18649
0.998257
0.817877
0.658975
0.533338
0.443895
0.384567
0.345526
0.316645
0.29277
0.270136
0.245808
0.217055
0.180619
0.137733
0.102451
0.504133
2.84364
3.44293
3.38294
3.13123
2.87797
2.6621
2.46693
2.30097
2.15765
2.01433
1.86028
1.69349
1.51498
1.32496
1.12846
0.932164
0.750225
0.597582
0.483169
0.406411
0.35638
0.321558
0.294686
0.270536
0.245353
0.216087
0.179577
0.137115
0.10255
0.509622
2.87652
3.50276
3.46955
3.24775
3.01069
2.79811
2.60537
2.4427
2.30283
2.16277
2.01122
1.84469
1.66641
1.47345
1.27039
1.06075
0.857873
0.677896
0.535592
0.436474
0.371684
0.328805
0.297786
0.271723
0.245466
0.215603
0.179096
0.136716
0.102715
0.511484
2.89655
3.54078
3.54115
3.35372
3.14324
2.93978
2.75126
2.59267
2.45549
2.31824
2.16916
2.00425
1.8266
1.63112
1.42155
1.20058
0.979207
0.773794
0.602875
0.476911
0.393074
0.338804
0.301724
0.272989
0.245555
0.215187
0.178618
0.136183
0.102925
0.515201
2.89087
3.54583
3.58901
3.44476
3.27226
3.08559
2.90398
2.7508
2.61694
2.48174
2.33505
2.17317
1.99631
1.79818
1.58195
1.35039
1.11275
0.885449
0.686457
0.531036
0.422706
0.35288
0.307467
0.274768
0.24555
0.214496
0.177796
0.135368
0.103139
0.516469
2.86383
3.51048
3.60464
3.51907
3.39512
3.2341
3.06374
2.91767
2.78739
2.65586
2.51129
2.35213
2.1759
1.97463
1.75179
1.50952
1.25772
1.01318
0.787257
0.600533
0.463315
0.373276
0.316467
0.278167
0.246487
0.214194
0.176896
0.134468
0.10331
0.519849
2.78958
3.41616
3.57065
3.56986
3.50742
3.38234
3.23036
3.09427
2.96867
2.84134
2.69737
2.53939
2.36093
2.15555
1.92595
1.67675
1.41522
1.15296
0.903608
0.685582
0.516237
0.401067
0.329026
0.283177
0.248295
0.214516
0.176297
0.133687
0.103446
0.51807
2.61588
3.21475
3.46578
3.58973
3.60551
3.52767
3.40195
3.27853
3.15877
3.03566
2.89075
2.72934
2.54339
2.33259
2.09843
1.84444
1.57644
1.30047
1.03058
0.78412
0.581543
0.437469
0.346065
0.289967
0.250447
0.215273
0.175841
0.132844
0.103436
0.50519
2.09013
2.75658
3.2397
3.55866
3.68164
3.66361
3.5742
3.46754
3.3545
3.23607
3.08816
2.91671
2.72195
2.50708
2.27428
2.01649
1.74092
1.452
1.16465
0.89466
0.660906
0.485258
0.369546
0.29958
0.254051
0.216106
0.175268
0.132021
0.103394
0.112557
0.178346
0.232489
0.26782
0.293153
0.313467
0.330253
0.344559
0.356936
0.367528
0.376482
0.384085
0.391897
0.4006
0.413855
0.435554
0.474538
0.541743
0.646829
0.788926
0.953997
1.13422
1.31236
1.47715
1.62383
1.76332
1.87349
1.85507
1.42712
0.365497
0.111066
0.17415
0.227375
0.262393
0.287482
0.307483
0.324094
0.338038
0.350213
0.360945
0.370319
0.378897
0.38826
0.399902
0.416211
0.442174
0.486722
0.559777
0.670837
0.818602
0.991557
1.1747
1.35354
1.51853
1.67313
1.82216
1.9506
1.94389
1.51118
0.349883
0.109922
0.170377
0.222684
0.257384
0.282179
0.301816
0.318159
0.331887
0.343956
0.354823
0.364646
0.374399
0.385677
0.400219
0.420313
0.451208
0.501565
0.580645
0.697646
0.848869
1.02365
1.20496
1.37928
1.54204
1.7039
1.86542
2.01381
2.03302
1.66658
0.373635
0.108944
0.166989
0.218579
0.253141
0.277867
0.297411
0.313562
0.327168
0.339203
0.350222
0.36076
0.371712
0.384888
0.401986
0.426299
0.462903
0.520306
0.607376
0.730823
0.888616
1.06588
1.24254
1.4119
1.57335
1.74163
1.91828
2.08749
2.12738
1.75603
0.394435
0.108202
0.164127
0.21486
0.24931
0.274089
0.293746
0.309853
0.323465
0.33548
0.346832
0.358
0.37011
0.385253
0.405173
0.434019
0.477118
0.542693
0.638549
0.768779
0.932672
1.10794
1.27976
1.44644
1.60984
1.78393
1.97502
2.16439
2.22442
1.83533
0.403252
0.107362
0.161131
0.211556
0.24583
0.270789
0.290662
0.30691
0.32059
0.332884
0.344891
0.356719
0.369716
0.386761
0.409646
0.442872
0.492858
0.567252
0.67244
0.80999
0.974441
1.14767
1.31616
1.48091
1.64688
1.82758
2.03283
2.24432
2.32488
1.92687
0.411246
0.106382
0.158087
0.207933
0.242626
0.267793
0.287807
0.304333
0.318329
0.330844
0.343033
0.355705
0.370371
0.389422
0.41547
0.453396
0.510616
0.59443
0.709875
0.85298
1.01642
1.18772
1.3529
1.51638
1.68552
1.87304
2.09182
2.3248
2.42606
2.0205
0.421813
0.105533
0.155174
0.204401
0.239608
0.265065
0.285189
0.302053
0.316508
0.329126
0.341907
0.35556
0.372041
0.393445
0.423134
0.466609
0.531634
0.62559
0.750577
0.899375
1.06171
1.23069
1.39305
1.55603
1.72717
1.92213
2.15432
2.41085
2.52785
2.11541
0.431864
0.104736
0.152404
0.201057
0.236721
0.26259
0.283022
0.300114
0.31499
0.328076
0.341391
0.356279
0.374711
0.398975
0.432963
0.483199
0.557581
0.662537
0.796698
0.949097
1.11205
1.27793
1.43967
1.60232
1.77508
1.97556
2.22056
2.49733
2.63014
2.20728
0.442831
0.104066
0.149876
0.197958
0.233919
0.260304
0.281084
0.298426
0.313719
0.327502
0.341592
0.357907
0.378622
0.40648
0.446008
0.504778
0.590397
0.707273
0.849201
1.00528
1.16933
1.33302
1.49505
1.65761
1.83254
2.03651
2.29392
2.58703
2.73166
2.29695
0.452009
0.103509
0.147619
0.19512
0.231295
0.258229
0.279444
0.297018
0.312702
0.327412
0.342756
0.360778
0.384288
0.416823
0.46383
0.533486
0.632273
0.761157
0.911167
1.07076
1.23535
1.39759
1.56113
1.72316
1.89947
2.10731
2.37606
2.6821
2.83284
2.38105
0.460004
0.103062
0.145597
0.192509
0.228901
0.256406
0.278191
0.296083
0.312099
0.32793
0.34502
0.36535
0.392525
0.431387
0.488423
0.571615
0.685422
0.826504
0.983763
1.14661
1.3108
1.47284
1.63669
1.79885
1.9775
2.18974
2.46852
2.78369
2.93462
2.46146
0.468422
0.102722
0.143793
0.190132
0.226734
0.254801
0.277273
0.295506
0.311971
0.329189
0.348399
0.372261
0.404474
0.452096
0.522258
0.621709
0.751496
0.904224
1.06775
1.2337
1.39755
1.55833
1.72027
1.88534
2.06677
2.28481
2.57143
2.89021
3.03735
2.54235
0.477248
0.102482
0.142162
0.187889
0.224648
0.252846
0.275781
0.295046
0.312761
0.331295
0.35321
0.382144
0.421592
0.481156
0.568031
0.686384
0.832144
0.994818
1.16358
1.33116
1.49447
1.6532
1.81424
1.98239
2.1675
2.3894
2.68054
2.99889
3.13995
2.62466
0.485749
0.102359
0.140746
0.185776
0.222577
0.250955
0.274418
0.29474
0.314053
0.334827
0.360342
0.395052
0.445613
0.521292
0.62822
0.766669
0.92759
1.09855
1.27148
1.43951
1.60136
1.75665
1.91774
2.09077
2.27881
2.50332
2.79426
3.10765
3.23939
2.70404
0.493265
0.102334
0.139588
0.183898
0.220679
0.249271
0.273302
0.294791
0.315973
0.340104
0.370838
0.414378
0.479312
0.575321
0.704898
0.862731
1.03708
1.21563
1.39156
1.55941
1.71922
1.87134
2.0287
2.2042
2.39764
2.62426
2.9123
3.21753
3.33317
2.77384
0.499137
0.10238
0.138763
0.182474
0.219257
0.248182
0.27276
0.295583
0.319178
0.347456
0.385486
0.441811
0.526473
0.646475
0.800144
0.976117
1.1616
1.34585
1.5235
1.69077
1.84805
1.99636
2.14822
2.32293
2.52347
2.75157
3.0339
3.32504
3.41877
2.8344
0.504309
0.102485
0.138362
0.181612
0.218561
0.247924
0.273204
0.297601
0.324258
0.358375
0.406735
0.48015
0.589184
0.736125
0.913603
1.10611
1.30051
1.48853
1.66631
1.83263
1.98727
2.13186
2.27854
2.45086
2.65492
2.88502
3.15646
3.42515
3.49344
2.88389
0.508713
0.102668
0.138289
0.181439
0.218445
0.248423
0.274744
0.30103
0.331625
0.373528
0.436194
0.531638
0.668934
0.84387
1.04306
1.24969
1.45091
1.64184
1.81879
1.98405
2.1358
2.27714
2.42002
2.58915
2.79185
3.02044
3.27556
3.51343
3.55306
2.91507
0.514013
0.102893
0.137978
0.181253
0.218415
0.249002
0.276595
0.305439
0.341815
0.39451
0.476076
0.598001
0.765393
0.966854
1.18493
1.40353
1.6113
1.80483
1.98081
2.14394
2.29239
2.43081
2.57104
2.7362
2.93506
3.15574
3.38493
3.58638
3.59132
2.93398
0.515599
0.103113
0.137143
0.180527
0.217848
0.249099
0.278453
0.311054
0.35585
0.423473
0.529142
0.680867
0.877723
1.1028
1.33731
1.5669
1.78197
1.97786
2.15278
2.31285
2.45779
2.59347
2.73051
2.89045
3.08272
3.28763
3.47934
3.63568
3.59796
2.92857
0.519127
0.103165
0.135913
0.179372
0.217375
0.249847
0.281643
0.31957
0.37536
0.4629
0.597171
0.781169
1.00499
1.25064
1.49964
1.73945
1.96168
2.16046
2.33456
2.4919
2.63362
2.76572
2.89931
3.05237
3.234
3.41353
3.55626
3.65369
3.56412
2.90119
0.520311
0.103189
0.13467
0.178402
0.217367
0.251026
0.286434
0.331786
0.402273
0.514676
0.680868
0.896806
1.14456
1.4074
1.66889
1.91751
2.14585
2.34875
2.52454
2.68124
2.82218
2.94945
3.07875
3.22233
3.38589
3.52865
3.60909
3.62209
3.47078
2.82679
0.523391
0.103273
0.133893
0.177613
0.21762
0.253403
0.292663
0.347788
0.437355
0.578573
0.77826
1.02359
1.29271
1.56854
1.83809
2.0926
2.32519
2.53422
2.717
2.8768
3.02115
3.14331
3.26666
3.39816
3.5354
3.62922
3.63001
3.51908
3.26935
2.6519
0.521808
0.103399
0.133617
0.17753
0.218023
0.256637
0.301246
0.369613
0.481955
0.654139
0.886573
1.15697
1.44579
1.73257
2.00846
2.26648
2.5006
2.71537
2.90812
3.07856
3.22385
3.34619
3.4607
3.57558
3.67622
3.70768
3.60015
3.29495
2.80985
2.11881
0.508768
0.296255
0.294588
0.296636
0.300604
0.308641
0.320876
0.336364
0.35513
0.376347
0.399541
0.423915
0.44894
0.47393
0.498307
0.521862
0.54426
0.565254
0.584728
0.602725
0.619233
0.634378
0.648205
0.660836
0.672371
0.682872
0.69237
0.700868
0.708425
0.715141
0.721089
0.726381
0.731188
0.735359
0.739066
0.742191
0.744721
0.746639
0.747999
0.748856
0.748991
0.748277
0.746858
0.744666
0.741618
0.737669
0.732765
0.726834
0.719977
0.712106
0.703281
0.693609
0.682957
0.671329
0.658749
0.645257
0.631001
0.616078
0.60055
0.584507
0.568045
0.551234
0.534141
0.516828
0.499367
0.481824
0.464235
0.446609
0.428946
0.411249
0.393537
0.375846
0.358225
0.340742
0.323454
0.306428
0.289708
0.273334
0.257341
0.241769
0.226666
0.212096
0.198128
0.184854
0.172359
0.160736
0.150071
0.140446
0.13193
0.124555
0.118309
0.11314
0.108958
0.105654
0.103114
0.101209
0.0998223
0.098846
0.0981872
0.0977824
0.0975692
0.0974979
0.0975383
0.0976299
0.0977813
0.097984
0.098223
0.0984828
0.098797
0.0992081
0.099654
0.100097
0.100489
0.10079
0.101164
0.101655
0.102203
0.10265
0.102872
0.102965
0.103031
0.103137
0.103268
0.10327
0.103446
0.103546
2.88774
2.99277
3.14054
3.31126
3.50691
3.72794
3.96829
4.22183
4.48211
4.74267
4.99682
5.2396
5.4671
5.67709
5.86845
6.0408
6.19455
6.33098
6.45064
6.55175
6.63975
6.71495
6.7792
6.83643
6.88825
6.93457
6.9754
7.01179
7.04485
7.07505
7.10291
7.12931
7.15182
7.16975
7.18573
7.1975
7.20439
7.20477
7.19733
7.18416
7.16631
7.14155
7.11113
7.0749
7.03253
6.98356
6.92745
6.86449
6.79398
6.71297
6.61928
6.51357
6.39681
6.27118
6.13677
5.99516
5.84849
5.69576
5.53814
5.3768
5.21277
5.0468
4.87886
4.70897
4.53724
4.36425
4.19041
4.01624
3.84238
3.66976
3.49963
3.33295
3.1701
3.01136
2.85665
2.70561
2.55778
2.41241
2.26857
2.12536
1.9822
1.83896
1.69614
1.55464
1.41546
1.28008
1.1498
1.02611
0.910333
0.803673
0.706789
0.620005
0.543414
0.476674
0.419294
0.370503
0.329336
0.294944
0.266425
0.242869
0.223336
0.20711
0.193606
0.182447
0.173416
0.16588
0.159495
0.154149
0.150033
0.14689
0.144638
0.14315
0.141142
0.139386
0.138236
0.137493
0.136727
0.135596
0.134458
0.133516
0.132991
0.132841
0.13282
0.133173
0.133489
5.3824
5.51481
5.70532
5.93155
6.19601
6.49923
6.83688
7.20232
7.58623
7.97909
8.37143
8.75446
9.12044
9.46395
9.78138
10.0704
10.3302
10.5615
10.7659
10.9435
11.0962
11.228
11.3411
11.4379
11.5199
11.5892
11.6474
11.696
11.7362
11.7691
11.7953
11.816
11.829
11.834
11.8299
11.8183
11.7993
11.7725
11.7376
11.6946
11.6434
11.5832
11.5141
11.4359
11.3486
11.2516
11.1448
11.0273
10.9001
10.7621
10.6128
10.4518
10.2794
10.0971
9.90431
9.70089
9.48602
9.26192
9.0304
8.79207
8.54749
8.29809
8.04558
7.78926
7.52993
7.26796
7.00411
6.73866
6.47186
6.20431
5.93676
5.67056
5.40662
5.14562
4.88791
4.63405
4.38456
4.13964
3.89957
3.66467
3.4354
3.21233
2.99617
2.78759
2.58705
2.39487
2.21132
2.03652
1.87034
1.7125
1.56275
1.42092
1.287
1.16124
1.04375
0.934858
0.83495
0.744466
0.663291
0.591349
0.528126
0.47306
0.425761
0.38528
0.351182
0.322141
0.297649
0.276878
0.259794
0.246236
0.235885
0.227691
0.219367
0.21224
0.206926
0.202531
0.198208
0.193666
0.189753
0.186503
0.183955
0.181901
0.180225
0.179079
0.178216
7.53829
7.67933
7.8912
8.15289
8.46023
8.81017
9.19663
9.61116
10.0439
10.4844
10.9225
11.3499
11.7596
12.1466
12.5061
12.8355
13.1335
13.4001
13.6363
13.8431
14.0225
14.1762
14.3072
14.4172
14.5081
14.5828
14.6433
14.6912
14.7282
14.7547
14.771
14.7762
14.7715
14.7574
14.7342
14.7021
14.6612
14.6116
14.5532
14.4859
14.4097
14.3241
14.2294
14.1254
14.0123
13.89
13.7584
13.6172
13.4668
13.307
13.1375
12.9581
12.767
12.5686
12.3615
12.1452
11.9197
11.686
11.445
11.1969
10.9414
10.6775
10.4044
10.1238
9.83616
9.54147
9.24179
8.9391
8.63232
8.32158
8.00868
7.6943
7.37918
7.06407
6.7498
6.43715
6.12742
5.82159
5.52059
5.22526
4.93644
4.65517
4.38226
4.11839
3.86401
3.61933
3.38477
3.16028
2.94588
2.74113
2.54588
2.35978
2.18242
2.01359
1.85302
1.70075
1.55659
1.42068
1.29255
1.17238
1.06028
0.95583
0.860258
0.773373
0.69567
0.626249
0.564949
0.511285
0.464773
0.426457
0.395825
0.369902
0.344798
0.322531
0.304675
0.28989
0.276057
0.263152
0.25258
0.243915
0.236845
0.23114
0.226599
0.223024
0.220073
9.55016