/*--------------------------------*- C++ -*----------------------------------*\
| =========                 |                                                 |
| \\      /  F ield         | OpenFOAM: The Open Source CFD Toolbox           |
|  \\    /   O peration     | Version:  2112                                  |
|   \\  /    A nd           | Website:  www.openfoam.com                      |
|    \\/     M anipulation  |                                                 |
\*---------------------------------------------------------------------------*/
FoamFile
{
    version     2.0;
    format      ascii;
    arch        "LSB;label=32;scalar=64";
    class       surfaceScalarField;
    location    "0.01028";
    object      phi;
}
// * * * * * * * * * * * * * * * * * * * * * * * * * * * * * * * * * * * * * //

dimensions      [1 0 -1 0 0 0 0];

oriented        oriented;

internalField   nonuniform List<scalar> 
27436
(
-0.533461
8.1928
-0.0932991
7.47166
-0.0850615
7.78732
-0.0703147
7.78641
-0.0647791
7.78882
-0.048425
7.78117
-0.0406372
7.78911
-0.0343639
7.79029
-0.0238309
7.78776
-0.0154095
7.78904
-0.00881646
7.78979
0.000330902
7.78808
0.0142072
7.78319
0.0311065
7.78081
0.0462463
7.7823
0.0549071
7.78826
0.0580174
7.79262
0.0658444
7.7897
0.0753492
7.78828
0.0895436
7.78254
0.0961901
7.78793
0.1117
7.7855
0.123861
7.78259
0.572643
7.46194
8.21252
-0.247206
8.43999
-0.0961754
7.32059
-0.0813891
7.77246
-0.0550622
7.76032
-0.0608077
7.79447
-0.0586677
7.78239
-0.0379153
7.76746
-0.0282927
7.78117
-0.0212317
7.7806
-0.0110776
7.77916
0.00139088
7.7784
0.0156803
7.77358
0.0151481
7.78387
0.0216367
7.77431
0.0210645
7.78285
0.0377121
7.7716
0.0466032
7.78373
0.0589613
7.77734
0.0823354
7.76491
0.0776661
7.7872
0.0721302
7.79345
0.102852
7.75481
0.113999
7.77169
0.267697
7.30614
8.47909
-0.227238
8.66722
-0.14115
7.23448
-0.120526
7.75171
-0.107165
7.74654
-0.105273
7.7922
-0.106438
7.7824
-0.093954
7.75582
-0.0736657
7.75974
-0.0585423
7.76274
-0.0500726
7.76844
-0.039032
7.76623
-0.0145583
7.74947
-0.0125556
7.78201
-0.011364
7.77318
-0.00824023
7.77972
0.012706
7.75063
0.0240671
7.77236
0.0473607
7.75409
0.060932
7.75134
0.0594036
7.78873
0.0638238
7.78899
0.0786504
7.74006
0.100236
7.74984
0.19236
7.21402
8.67871
-0.169537
8.83679
-0.139487
7.20446
-0.134242
7.74642
-0.113581
7.72566
-0.114904
7.79316
-0.110971
7.7778
-0.0904037
7.73539
-0.0721816
7.74012
-0.0575369
7.74612
-0.0438499
7.75369
-0.0289974
7.75045
-0.00716577
7.72751
0.00304387
7.7719
0.0049026
7.77139
0.0149654
7.76966
0.035306
7.73029
0.0494425
7.75823
0.0697954
7.73378
0.0885722
7.73257
0.0942356
7.78306
0.0944689
7.78871
0.118936
7.71557
0.111215
7.75718
0.161397
7.16556
8.84445
-0.0735882
8.91038
-0.0365663
7.1674
-0.0927089
7.80244
-0.0634688
7.69615
-0.0714393
7.80067
-0.0708033
7.7751
-0.0522688
7.71731
-0.0359612
7.72237
-0.0246223
7.7335
-0.0145033
7.74311
-0.00164467
7.73644
0.0165289
7.70923
0.0268814
7.76163
0.027681
7.77066
0.0370331
7.76032
0.0543787
7.71295
0.0644667
7.74815
0.0821697
7.71611
0.0970228
7.71772
0.101069
7.77902
0.096895
7.79284
0.124831
7.68758
0.0899531
7.79173
0.0971831
7.15914
8.94056
0.118597
8.79177
0.0437922
7.24213
-0.0503151
7.89643
-0.0137683
7.65925
-0.0335801
7.82
-0.0379031
7.77909
-0.0249122
7.70427
-0.0127486
7.70869
-0.00602194
7.72518
-0.00199339
7.73897
0.00543748
7.72758
0.0192861
7.69529
0.0256546
7.75533
0.0250152
7.77135
0.0296655
7.75571
0.0421722
7.70046
0.0463683
7.74396
0.0584894
7.70401
0.0684884
7.70772
0.069066
7.77843
0.0524441
7.80942
0.0884685
7.65154
-0.0136058
7.89334
-0.0199269
7.16558
8.91639
0.30466
8.4871
0.136131
7.41056
-0.00693488
8.03938
0.0211563
7.63062
-0.0250344
7.86557
-0.0513617
7.80602
-0.0594109
7.71218
-0.0674303
7.71644
-0.0829245
7.73907
-0.0957163
7.75151
-0.11236
7.74303
-0.120325
7.70336
-0.131131
7.76616
-0.146258
7.78652
-0.15806
7.76753
-0.1664
7.70885
-0.185025
7.7626
-0.192957
7.71197
-0.207903
7.72267
-0.228724
7.79926
-0.262772
7.84342
-0.284675
7.67339
-0.354275
7.9626
-0.657596
7.4694
8.25468
0.873325
7.61378
0.52195
7.76186
0.410339
8.15079
0.331049
7.70939
0.265138
7.93089
0.223697
7.84876
0.194863
7.73969
0.171137
7.73961
0.141766
7.76702
0.113853
7.77847
0.0825215
7.77344
0.0608975
7.72504
0.037951
7.78913
0.00674027
7.81773
-0.0192277
7.79358
-0.0445031
7.73419
-0.0743145
7.79245
-0.10067
7.73833
-0.130593
7.7526
-0.167121
7.83573
-0.228187
7.90443
-0.2789
7.724
-0.406041
8.08948
-0.692995
7.75639
7.55854
0.592977
7.02085
0.410234
7.94461
0.23774
8.32321
0.187197
7.75937
0.126272
7.99136
0.093891
7.87992
0.0865531
7.74615
0.0837493
7.74148
0.0783711
7.77144
0.0755333
7.77981
0.0712439
7.77739
0.0706764
7.72546
0.0768871
7.78285
0.0767799
7.81785
0.0769529
7.79348
0.0722349
7.73899
0.0674542
7.79731
0.0629734
7.74287
0.0562503
7.75935
0.0293304
7.86264
-0.0266836
7.9604
-0.0465608
7.74379
-0.21936
8.26212
-0.371601
7.90866
7.18841
-3.05094
10.0719
-3.39182
8.28536
-2.76491
7.69597
-2.61941
7.61397
-2.30369
7.67603
-1.9417
7.51409
-1.64758
7.4504
-1.36983
7.46284
-1.08419
7.48525
-0.781142
7.47529
-0.494732
7.49168
-0.20883
7.43941
0.0976479
7.47626
0.403607
7.51201
0.694802
7.50243
0.966307
7.46757
1.26486
7.49887
1.54149
7.46627
1.83571
7.4651
2.19634
7.50194
2.50182
7.65486
2.66008
7.5854
3.23395
7.68836
2.95099
8.19156
10.1421
-4.258
14.3299
-4.36777
8.3948
-4.19915
7.52739
-3.90354
7.31897
-3.32238
7.09476
-2.79224
6.98117
-2.34826
7.00621
-1.92197
7.03596
-1.47138
7.03391
-1.02057
7.0231
-0.561988
7.03431
-0.121399
6.99866
0.340426
7.01436
0.811691
7.04101
1.25928
7.05503
1.67728
7.04964
2.13231
7.04395
2.5703
7.02844
3.02491
7.0106
3.5763
6.95049
4.1328
7.09826
4.44317
7.27484
4.61396
7.51781
4.56465
8.24122
14.7067
-2.75809
17.0879
-4.86914
10.5042
-4.9854
7.64343
-4.14019
6.47538
-3.6205
6.57558
-3.17396
6.53607
-2.70036
6.53392
-2.21653
6.55193
-1.71811
6.53454
-1.22554
6.52916
-0.722755
6.53255
-0.244067
6.51975
0.257389
6.51297
0.76205
6.53679
1.25943
6.55786
1.71831
6.59091
2.20634
6.55622
2.69737
6.53785
3.19216
6.51609
3.66776
6.47488
4.24842
6.51736
5.09802
6.42495
4.7209
7.8951
2.77921
10.1835
17.4863
2.36496
14.7224
0.168105
12.6997
-5.0065
12.8169
-3.89191
5.36148
-3.80418
6.49082
-3.30703
6.04212
-2.87681
6.10536
-2.37149
6.04628
-1.84979
6.01167
-1.3298
6.00836
-0.810099
6.01307
-0.306805
6.01623
0.210302
5.99617
0.740573
6.00715
1.26487
6.03384
1.78879
6.06731
2.28039
6.06503
2.76022
6.05862
3.20102
6.07589
3.76119
5.91498
3.97399
6.30427
5.10865
5.28941
-0.179824
13.1833
-2.39886
12.4028
15.0876
2.45414
12.2667
3.52007
11.6329
3.45012
12.8853
-0.80914
9.62855
-3.63558
9.32318
-3.20279
5.61547
-2.97378
5.87704
-2.47259
5.54426
-1.946
5.48424
-1.46512
5.52717
-0.976517
5.52436
-0.472703
5.51275
0.0260008
5.49817
0.531995
5.50206
1.03409
5.53243
1.5288
5.57305
2.02839
5.56561
2.48349
5.60392
2.61261
5.94751
2.98579
5.54186
-0.0894006
9.37914
-4.15621
9.35645
-3.87825
12.9044
-2.95655
11.4816
12.1316
1.87708
10.3875
3.87472
9.63456
5.7702
10.9897
4.95587
10.4471
4.10181
10.1844
-1.19241
10.9129
-2.38604
7.07158
-2.04616
5.20463
-1.62909
5.06762
-1.13646
5.03591
-0.602384
4.99117
-0.0627628
4.97435
0.469674
4.96693
1.00169
4.97139
1.54206
4.9932
2.0537
5.06215
2.4461
5.17312
2.7979
5.25217
1.50745
7.23866
-3.6631
10.7139
-4.23573
9.95171
-4.8898
10.0101
-3.05327
11.0672
-1.33398
9.76208
10.7976
1.09017
9.29511
2.16638
8.55706
3.98014
9.17767
4.93666
9.49275
5.0565
10.0693
5.79534
10.1777
2.78512
10.0789
1.13267
6.86054
-0.0593657
6.26253
-0.39195
5.36775
-0.252525
4.85224
0.041681
4.6809
0.394674
4.61485
0.717168
4.64958
0.930761
4.78067
0.814812
5.17912
-0.5114
6.50014
-2.33879
7.07902
-5.02962
9.92979
-4.27746
9.96249
-3.97002
9.64392
-3.50717
9.54695
-1.86044
9.41958
-0.760371
8.66154
10.037
2.00477
7.28747
3.17185
7.38772
4.36884
7.98062
5.94584
7.91563
7.05134
8.96797
6.63898
10.5949
4.70124
12.0103
2.16455
9.40174
0.87356
7.55613
0.190021
6.05274
0.00145129
5.04103
-0.0386326
4.71878
-0.0188986
4.59155
-0.0193686
4.64836
-0.166224
4.92477
-0.82266
5.83394
-2.38032
8.05716
-4.94021
9.6386
-6.73932
11.7337
-7.24491
10.4675
-6.42509
8.82344
-4.99979
8.12053
-3.70626
8.12523
-2.56108
7.51565
7.47531
2.53018
4.7551
4.14912
5.76549
4.67784
7.44892
4.32304
8.27227
4.54122
8.74865
4.26529
10.8729
4.1296
12.1485
2.55323
10.9793
1.3689
8.74206
0.604044
6.82027
0.218986
5.42819
-0.0821941
5.02075
-0.37919
4.88826
-0.682567
4.95032
-1.02615
5.26647
-1.90908
6.71436
-3.24614
9.3903
-4.92944
11.3201
-5.85756
12.6653
-6.25066
10.8629
-5.96394
8.53817
-5.93733
8.09388
-4.96456
7.15151
-2.9403
5.49082
4.53453
3.16273
1.59133
6.23632
2.68965
8.48162
5.20011
8.24224
8.51802
6.46512
10.523
5.92211
11.4134
5.58358
12.4888
4.87924
11.6843
4.14997
9.47149
3.23291
7.73892
1.98465
6.67761
0.826162
6.17941
-0.322593
6.03643
-1.51836
6.1447
-2.89038
6.63632
-3.9717
7.79263
-4.37988
9.79513
-4.77301
11.7113
-4.63842
12.5341
-5.25612
11.4854
-7.51776
10.8019
-7.85667
8.43395
-5.77118
5.0649
-2.95916
2.67828
1.57507
1.19898
0.391183
2.92332
0.963444
4.94177
3.17933
6.45875
6.99925
5.75203
11.2286
5.43635
11.7303
5.40716
12.5211
4.85741
12.2348
3.8002
10.5283
2.64483
8.89436
1.49987
7.82235
0.372822
7.30606
-0.75484
7.16354
-1.91748
7.30648
-3.16169
7.87929
-4.45298
9.08246
-5.46561
10.8062
-5.88246
12.1268
-5.80647
12.4589
-6.08198
11.7624
-6.67444
11.3965
-4.98362
6.74321
-2.98104
3.06186
-1.21188
0.908829
0.362919
0.580071
-0.190246
0.864543
0.677606
1.00044
3.0423
1.33361
6.66441
2.25701
10.3048
2.91417
11.075
3.41121
12.0259
3.32338
12.322
2.65392
11.1975
1.78786
9.76081
0.93212
8.67832
0.101404
8.13682
-0.733327
7.99823
-1.60408
8.17699
-2.54172
8.81657
-3.48361
10.0236
-4.08578
11.4074
-4.02639
12.0664
-3.41291
11.8455
-2.72488
11.0746
-1.66525
10.3383
-1.14491
6.22313
-0.916755
2.83336
-0.597854
0.589615
-0.235404
-0.154274
-0.0360451
-0.3014
0.823713
-0.691273
3.43057
-0.642702
6.6126
0.398311
9.26117
1.30977
10.1667
1.90128
11.4348
2.03138
12.1915
1.73922
11.4899
1.26703
10.2336
0.713624
9.23238
0.143504
8.70746
-0.413819
8.5561
-0.985409
8.74886
-1.53902
9.3704
-1.97819
10.4626
-2.16566
11.594
-1.95339
11.8535
-1.27447
11.1668
-0.296838
10.0972
0.804062
9.23751
0.694494
6.33282
0.363488
3.16421
0.201718
0.751558
-0.0336519
-0.523904
0.487223
-1.35958
1.65905
-1.77667
3.84713
-1.79079
6.62158
-0.915473
8.38576
-0.0567574
9.31116
0.467048
10.9106
0.772628
11.8851
0.856829
11.4064
0.723372
10.368
0.489836
9.46704
0.217889
8.98067
-0.0737321
8.84889
-0.331983
9.00774
-0.527796
9.56643
-0.595381
10.53
-0.460116
11.4581
-0.181949
11.5748
0.449291
10.5358
1.30569
9.24128
2.17091
8.37176
2.0333
6.46982
1.51008
3.68682
0.546095
1.71526
0.511999
-0.399714
0.886905
-1.5061
2.76542
-2.41899
4.75881
-2.54215
6.74156
-2.0635
7.90898
-1.59369
8.84179
-1.02455
10.3385
-0.510845
11.3698
-0.161234
11.0581
0.00121832
10.207
0.017995
9.45162
-0.0511327
9.05161
-0.133871
8.93311
-0.204171
9.07876
-0.185681
9.54814
-0.00580262
10.35
0.351791
11.1006
0.837449
11.0892
1.34462
10.0287
1.92606
8.66014
2.46141
7.83607
2.33417
6.59589
1.35919
4.66046
0.353304
2.71887
0.864237
-0.38395
1.27142
-1.39313
3.77403
-2.18114
5.54567
-2.42236
6.98219
-2.19077
7.67676
-1.88505
8.53501
-1.44798
9.89904
-0.919901
10.8403
-0.474344
10.6149
-0.225992
9.96057
-0.108531
9.33585
-0.0530358
8.99809
-0.0313559
8.91293
0.0326235
9.01564
0.171576
9.40951
0.439268
10.0827
0.876483
10.6638
1.38344
10.5819
1.77186
9.64051
2.10578
8.32581
2.38033
7.56146
2.11779
6.85762
1.29859
5.479
0.345193
3.67022
1.20975
-0.349092
1.62096
-1.22877
4.65602
-2.04955
6.36593
-2.41026
7.34203
-2.38126
7.64633
-2.15601
8.3074
-1.77181
9.51166
-1.21502
10.2829
-0.721421
10.1239
-0.344639
9.58579
-0.128146
9.12138
0.011809
8.85999
0.150784
8.77538
0.297057
8.87035
0.531184
9.17592
0.935547
9.67908
1.44601
10.1534
1.96244
10.0661
2.28652
9.31655
2.50412
8.10886
2.51231
7.55196
2.14024
7.22887
1.24996
6.36801
0.357129
4.56419
1.56862
-0.453506
2.07438
-1.38269
5.58597
-2.20264
7.18515
-2.53091
7.67021
-2.59024
7.70435
-2.45839
8.17421
-2.16344
9.21466
-1.65564
9.77581
-1.13605
9.60724
-0.749902
9.20185
-0.459439
8.83301
-0.221901
8.62409
-0.0251394
8.57997
0.209921
8.63629
0.50358
8.88314
0.880673
9.30273
1.35841
9.67736
1.83564
9.58878
2.14221
9.00982
2.29486
7.95527
2.23892
7.60767
1.95665
7.50999
1.21492
7.10918
0.368609
5.41119
1.93747
-0.376897
2.45229
-1.21869
6.42635
-1.97023
7.93419
-2.16578
7.86417
-2.35542
7.892
-2.26932
8.0874
-1.98519
8.92996
-1.49197
9.28364
-1.02182
9.13969
-0.61032
8.79277
-0.307361
8.53204
-0.0624688
8.38072
0.183518
8.33519
0.431064
8.39006
0.744964
8.57028
1.18269
8.86611
1.6646
9.19569
2.10799
9.14639
2.3432
8.775
2.41344
7.88624
2.20035
7.81972
1.9461
7.76334
1.18117
7.87258
0.368627
6.224
2.30634
-0.316654
2.77162
-1.20733
7.32364
-1.9154
8.64447
-2.08693
8.03516
-2.2318
8.03541
-2.16392
8.01739
-1.91959
8.68483
-1.49133
8.85715
-1.02956
8.68161
-0.651316
8.4167
-0.313764
8.19605
-0.0112919
8.07933
0.260916
8.06406
0.569187
8.08279
0.917328
8.22309
1.30478
8.47982
1.74502
8.75692
2.16173
8.73047
2.37678
8.56003
2.44151
7.82067
2.28235
7.97962
2.09573
7.94912
1.39847
8.56997
0.447407
7.17551
2.75128
-0.541189
3.31277
-1.44602
8.22887
-2.05687
9.25607
-2.22852
8.20888
-2.40275
8.21029
-2.43802
8.05274
-2.24033
8.48787
-1.78766
8.40717
-1.34869
8.2457
-0.932128
8.0018
-0.596099
7.8611
-0.302142
7.7862
-0.000419933
7.76316
0.29599
7.78729
0.638018
7.88201
1.05896
8.05971
1.4887
8.32836
1.87744
8.34253
2.07847
8.3596
2.04062
7.85984
1.93034
8.08956
1.71265
8.16576
1.1311
9.1518
0.390483
7.90003
3.13504
-0.446283
3.76269
-1.27952
9.06798
-1.8859
9.86382
-2.03566
8.35619
-2.03811
8.21169
-2.01413
8.02795
-1.82475
8.29979
-1.47065
8.05614
-1.07414
7.85158
-0.72838
7.65689
-0.39099
7.52426
-0.0648782
7.46065
0.23772
7.4611
0.566316
7.45934
0.90691
7.54205
1.26443
7.70285
1.64838
7.94528
2.00801
7.98378
2.15205
8.21575
2.15842
7.8528
2.14546
8.10178
1.93662
8.37315
1.42643
9.66082
0.588626
8.74252
3.73054
-0.431898
4.19662
-0.821973
9.46827
-1.59042
10.6333
-1.75977
8.52948
-1.81943
8.27293
-1.77803
7.98651
-1.65062
8.17418
-1.3231
7.73006
-0.996973
7.52629
-0.652076
7.31211
-0.349984
7.22216
-0.0690816
7.17987
0.23046
7.16183
0.508596
7.18153
0.818991
7.23196
1.18552
7.33697
1.52387
7.60706
1.80417
7.70448
1.9274
8.0927
1.95171
7.82997
1.9382
8.11662
1.87868
8.43202
1.1452
10.3951
0.565912
9.342
4.31711
-0.639302
4.83467
-1.11282
9.94786
-1.87307
11.3884
-1.99118
8.64627
-1.95595
8.23834
-1.88968
7.92128
-1.71329
7.99951
-1.42606
7.44329
-1.11073
7.21076
-0.822609
7.02326
-0.528022
6.92733
-0.220613
6.87233
0.0635034
6.87778
0.373666
6.87144
0.670496
6.93538
0.954773
7.05277
1.25284
7.30993
1.54071
7.41602
1.6816
7.95151
1.75558
7.75581
1.75353
8.11977
1.71174
8.47612
0.78049
11.329
0.324641
9.77788
4.62094
-0.445449
5.28179
-0.78072
10.2811
-1.38524
11.9883
-1.60171
8.85887
-1.65653
8.2888
-1.60444
7.86691
-1.4536
7.8471
-1.18941
7.17883
-0.909623
6.92951
-0.604892
6.7181
-0.324306
6.64631
-0.0671103
6.61505
0.215079
6.5955
0.471296
6.61528
0.753772
6.65278
1.06926
6.73713
1.35038
7.0286
1.59666
7.17044
1.74909
7.7978
1.76628
7.73602
1.75629
8.13043
1.42992
8.79879
0.978589
11.7823
0.436106
10.3235
5.05747
-0.313263
5.59505
-0.490754
10.4512
-1.01665
12.5195
-1.52263
9.36897
-1.5649
8.33519
-1.48458
7.7906
-1.26801
7.63346
-1.05546
6.96301
-0.816585
6.68806
-0.581008
6.48175
-0.334462
6.39928
-0.0678382
6.34796
0.173267
6.35428
0.44183
6.34667
0.685252
6.40931
0.920128
6.50236
1.16226
6.7857
1.39045
6.94324
1.56931
7.62093
1.62305
7.68513
1.66467
8.08959
1.238
9.23039
0.737331
12.2856
0.425174
10.6562
5.49653
-0.433669
6.03391
-0.690863
10.7109
-1.00024
12.829
-1.60696
9.9758
-1.56667
8.29372
-1.51866
7.73891
-1.37478
7.48473
-1.12522
6.71134
-0.910025
6.47178
-0.655963
6.22724
-0.415561
6.15852
-0.197985
6.13024
0.0479097
6.1082
0.2655
6.1289
0.515126
6.15964
0.776153
6.2409
0.984822
6.57688
1.20573
6.72046
1.35773
7.46739
1.39044
7.65017
1.35539
8.1262
0.725711
9.86393
0.401408
12.6045
0.331234
10.7347
5.8626
-0.266125
6.29879
-0.361046
10.8019
-0.498525
12.9625
-1.24605
10.7099
-1.36961
8.41324
-1.33938
7.70676
-1.12703
7.27008
-0.910337
6.494
-0.698821
6.25841
-0.503766
6.03181
-0.290522
5.94484
-0.0500989
5.88943
0.164765
5.89319
0.409349
5.88436
0.617657
5.95105
0.814054
6.04451
1.03622
6.35464
1.26969
6.48691
1.4574
7.27883
1.48116
7.62509
1.4016
8.20436
0.674619
10.5901
0.609916
12.6814
0.467801
10.8761
6.35854
-0.0521442
6.34337
-0.0646143
10.8082
-0.0958297
12.9816
-0.78338
11.4068
-1.17927
8.81432
-1.13866
7.67096
-1.02729
7.16023
-0.833241
6.29687
-0.654903
6.07851
-0.444873
5.82135
-0.241258
5.74081
-0.062818
5.7107
0.145866
5.68428
0.322023
5.708
0.528209
5.74479
0.752626
5.8201
0.928064
6.1795
1.11479
6.30098
1.27578
7.12024
1.34371
7.55735
0.970983
8.57738
0.323129
11.2271
0.285902
12.7242
0.2299
10.9604
6.58252
-0.240384
6.58997
-0.394903
10.9539
-0.223215
12.7977
-0.748604
11.9305
-1.32945
9.38524
-1.23163
7.56931
-1.06381
6.98512
-0.883607
6.11363
-0.691168
5.88556
-0.525721
5.65568
-0.354963
5.56964
-0.148708
5.5041
0.0328951
5.50239
0.235901
5.50485
0.406079
5.57442
0.571114
5.65422
0.770635
5.97842
0.94139
6.12732
1.04789
7.01088
1.12247
7.48123
0.470968
9.23208
-0.0875885
11.79
0.0452725
12.6117
0.0740003
10.9423
6.6342
-0.0491903
6.6452
-0.0770433
10.9837
0.118592
12.5985
-0.176605
12.2194
-0.864359
10.0655
-0.93882
7.64085
-0.861835
6.90772
-0.718041
5.97074
-0.574779
5.74201
-0.386613
5.46778
-0.202509
5.38515
-0.0458281
5.347
0.134714
5.32154
0.292888
5.3464
0.477728
5.38932
0.680091
5.45267
0.822114
5.83734
0.969284
5.98144
1.0932
6.88622
1.03409
7.53783
0.393422
9.86743
0.0820401
12.1043
0.194461
12.5116
0.119821
11.0174
6.73271
0.0113882
6.6345
0.0663395
10.9346
0.290917
12.3779
0.235503
12.2898
-0.535411
10.8488
-0.907003
8.0216
-0.73521
6.73932
-0.636544
5.87058
-0.487658
5.59224
-0.352306
5.33133
-0.210288
5.24247
-0.0413905
5.17774
0.113406
5.16642
0.28647
5.17298
0.42297
5.25255
0.563778
5.31088
0.732851
5.66667
0.832209
5.88082
1.04867
6.67032
0.756527
7.83004
-0.026285
10.6436
-0.191642
12.2753
-0.01669
12.3249
0.0201479
10.925
6.67132
-0.125451
6.75613
-0.0961123
10.9122
0.0688595
12.2199
0.148369
12.2117
-0.32116
11.3061
-0.817793
8.51255
-0.775569
6.68908
-0.661562
5.75258
-0.569387
5.4995
-0.418051
5.18062
-0.262063
5.08645
-0.124994
5.04035
0.0270376
5.01408
0.160515
5.03913
0.322303
5.09043
0.477122
5.15608
0.558924
5.58449
0.636821
5.80122
0.723854
6.58097
0.164133
8.38871
-0.471236
11.2794
-0.355048
12.1579
-0.255054
12.1942
-0.103104
10.7434
6.56956
-0.029486
6.77938
0.0440515
10.8368
0.195281
12.0748
0.53827
11.8711
0.107408
11.7385
-0.492089
9.10771
-0.645009
6.85017
-0.509719
5.62033
-0.411837
5.40298
-0.304006
5.07267
-0.183063
4.96508
-0.0341837
4.89127
0.104563
4.87505
0.25736
4.886
0.373407
4.9741
0.493651
5.03621
0.627366
5.4517
0.753922
5.67556
0.630112
6.70402
0.0529095
8.96049
-0.321825
11.648
-0.0750829
11.9106
0.051706
12.054
0.121485
10.6868
6.72289
0.0906753
6.68274
0.266168
10.6545
0.317361
12.0234
0.575863
11.6243
0.739281
11.5868
-0.0396996
9.89744
-0.468026
7.28501
-0.446631
5.59586
-0.372003
5.32709
-0.271603
4.97074
-0.145905
4.83909
-0.0325699
4.77756
0.0958657
4.74633
0.208689
4.77281
0.343756
4.83873
0.454409
4.92435
0.54399
5.36139
0.596418
5.62349
0.319647
6.98291
-0.465915
9.74567
-0.460919
11.6396
-0.161562
11.6077
-0.108086
12.0028
-0.0361989
10.6405
6.71298
-0.122952
6.80127
-0.00974909
10.5352
0.0991733
11.9148
0.358405
11.352
0.62462
11.3172
0.0626578
10.4482
-0.408348
7.74004
-0.466774
5.65329
-0.383641
5.24489
-0.304165
4.89266
-0.217023
4.75233
-0.0931249
4.65398
0.023417
4.6296
0.145676
4.65028
0.230541
4.75357
0.31393
4.84247
0.400568
5.27439
0.315135
5.70644
-0.168138
7.46485
-0.835686
10.4134
-0.561246
11.3674
-0.315675
11.3615
-0.258166
11.9486
-0.0758989
10.4773
6.65237
0.0465491
6.75121
0.229914
10.3486
0.291195
11.8524
0.47264
11.1793
0.864107
10.9225
0.699554
10.6264
0.00283535
8.44174
-0.300944
5.9664
-0.31804
5.26355
-0.216221
4.78952
-0.12009
4.65576
-0.0297113
4.56303
0.0793597
4.52044
0.171064
4.55856
0.279369
4.64515
0.354761
4.76647
0.383504
5.24719
0.124617
5.96935
-0.507587
8.10238
-0.785684
10.6856
-0.357707
10.936
-0.149366
11.1568
-0.104072
11.9097
0.0271533
10.3296
6.68517
0.0618564
6.68905
0.289479
10.1301
0.402973
11.7503
0.583058
11.0134
0.843606
10.658
0.96424
10.503
0.307744
9.09685
-0.0795309
6.34979
-0.212199
5.39227
-0.159501
4.73573
-0.0977171
4.59439
-0.0161302
4.48206
0.0722552
4.4319
0.161725
4.46863
0.227636
4.57916
0.309542
4.68329
0.237501
5.31668
-0.149811
6.35737
-0.853916
8.81163
-0.73597
10.569
-0.437514
10.6406
-0.243025
10.9671
-0.141872
11.7945
0.0225698
10.1369
6.70964
-0.0290832
6.7193
0.139269
9.97382
0.258343
11.6378
0.396244
10.8567
0.618403
10.4252
1.01674
10.0908
0.709839
9.39811
0.0656372
6.99076
-0.225951
5.68568
-0.187539
4.69937
-0.126861
4.53456
-0.0574334
4.41207
0.0115384
4.36272
0.075252
4.40554
0.138566
4.51571
0.172874
4.64952
-0.0928496
5.58318
-0.751062
7.01359
-1.21689
9.27193
-0.7944
10.145
-0.565707
10.4123
-0.430524
10.8305
-0.286416
11.6382
-0.0742201
9.89678
6.63376
-0.0247894
6.74469
0.225926
9.72558
0.413359
11.4531
0.522934
10.7571
0.737624
10.2292
1.02693
9.81389
0.977504
9.45641
0.356611
7.6161
0.00371573
6.0403
-0.0987813
4.80063
-0.0614274
4.49665
-0.0114281
4.36211
0.0354271
4.31566
0.0931031
4.347
0.13482
4.4739
0.074759
4.71033
-0.269904
5.9297
-0.871477
7.62163
-1.05544
9.46145
-0.727015
9.81727
-0.488775
10.1717
-0.364414
10.6995
-0.166139
11.4232
0.0653947
9.65152
6.69508
0.018156
6.72837
0.276147
9.47142
0.544901
11.193
0.61937
10.6818
0.786682
10.0462
1.00026
9.59806
1.31683
9.13636
0.886939
8.03886
0.172986
6.74838
-0.0069676
4.98012
-0.0161372
4.5063
0.00718182
4.33901
0.0331146
4.28957
0.0679622
4.3129
0.068726
4.47295
-0.106411
4.88416
-0.813626
6.63628
-1.24024
8.05005
-0.982259
9.20251
-0.740667
9.57599
-0.536322
9.96875
-0.432972
10.5921
-0.190891
11.1714
0.041509
9.41843
6.73094
-0.0310738
-0.674286
-0.048715
-0.752447
-0.0711176
-0.822179
-0.0926567
-0.920721
-0.124228
-1.01855
-0.164434
-1.10971
-0.195265
-1.1831
-0.214903
-1.23349
-0.233718
-1.23467
-0.242325
-1.22878
-0.238354
-1.21141
-0.22552
-1.19936
-0.207084
-1.19075
-0.186936
-1.19298
-0.166616
-1.20339
-0.146687
-1.21801
-0.128672
-1.23884
-0.10827
-1.25663
-0.0982183
-1.27433
-0.0869831
-1.28514
-0.0796395
-1.30232
-0.0703339
-1.3196
-0.059804
-1.33363
-0.0473988
-1.34632
-0.0344641
-1.35854
-0.0235378
-1.36721
-0.0150132
-1.37252
-0.00776156
-1.37249
-0.00294031
-1.35857
-1.30085
0.0215007
-0.696626
-0.00690919
-0.723326
-0.027364
-0.798689
-0.0558329
-0.884195
-0.0843907
-0.980668
-0.123496
-1.06397
-0.151303
-1.14387
-0.178328
-1.19192
-0.199159
-1.20152
-0.211506
-1.20683
-0.209282
-1.20187
-0.198848
-1.19741
-0.182471
-1.1932
-0.164395
-1.19626
-0.146378
-1.2053
-0.128937
-1.21893
-0.112567
-1.237
-0.0957753
-1.2539
-0.0875108
-1.2637
-0.0780564
-1.27483
-0.0700277
-1.291
-0.0597158
-1.3084
-0.0493995
-1.32296
-0.038291
-1.33684
-0.0275037
-1.35069
-0.0182867
-1.3597
-0.0113457
-1.3656
-0.0059387
-1.36624
-0.00223687
-1.34847
-1.28845
-0.0189176
-0.677675
-0.0508254
-0.689797
-0.0803439
-0.763305
-0.112781
-0.841266
-0.150272
-0.934179
-0.183946
-1.01935
-0.219985
-1.09552
-0.248156
-1.14576
-0.264273
-1.16862
-0.272467
-1.1845
-0.266797
-1.19074
-0.251978
-1.19529
-0.231149
-1.19683
-0.209161
-1.2017
-0.187533
-1.21033
-0.167555
-1.22226
-0.14845
-1.23798
-0.129537
-1.25373
-0.11744
-1.26136
-0.107171
-1.27061
-0.0950948
-1.28499
-0.0804407
-1.30363
-0.066186
-1.31796
-0.0526684
-1.33303
-0.0395664
-1.3479
-0.0286738
-1.35782
-0.0197334
-1.36544
-0.0116041
-1.36686
-0.00468478
-1.34729
-1.28507
-0.0417761
-0.635788
-0.0790234
-0.649358
-0.1148
-0.71727
-0.152536
-0.792736
-0.191784
-0.882901
-0.22778
-0.969891
-0.268966
-1.03946
-0.294774
-1.09505
-0.312918
-1.12793
-0.322253
-1.1548
-0.316682
-1.17115
-0.301386
-1.185
-0.278776
-1.19519
-0.253436
-1.20547
-0.228452
-1.21528
-0.205078
-1.22628
-0.183054
-1.24001
-0.162302
-1.25599
-0.146041
-1.26422
-0.132943
-1.27048
-0.115707
-1.28609
-0.0983972
-1.30188
-0.0814559
-1.31696
-0.065625
-1.33325
-0.050856
-1.35027
-0.0383097
-1.36177
-0.0276866
-1.37194
-0.0172155
-1.37392
-0.00734291
-1.35443
-1.28968
-0.0449521
-0.590402
-0.0834728
-0.606591
-0.123372
-0.666154
-0.157973
-0.743983
-0.196979
-0.830797
-0.237792
-0.914223
-0.277675
-0.982159
-0.30403
-1.04055
-0.324403
-1.07951
-0.335305
-1.11654
-0.331506
-1.14265
-0.317695
-1.16734
-0.296013
-1.18809
-0.269729
-1.20592
-0.243072
-1.2197
-0.217799
-1.2324
-0.19489
-1.24521
-0.173828
-1.26027
-0.159251
-1.26026
-0.140819
-1.27473
-0.121831
-1.28797
-0.104353
-1.30367
-0.0876031
-1.31963
-0.0708912
-1.33809
-0.0557666
-1.35689
-0.0427278
-1.3711
-0.0315883
-1.38248
-0.020325
-1.3855
-0.00878059
-1.36751
-1.30299
-0.0443492
-0.545431
-0.0854433
-0.560937
-0.124481
-0.616575
-0.161504
-0.691634
-0.20319
-0.77535
-0.24605
-0.855676
-0.28389
-0.925335
-0.310283
-0.982646
-0.332382
-1.02765
-0.345712
-1.07357
-0.345005
-1.10797
-0.33433
-1.14355
-0.314961
-1.17559
-0.289493
-1.20329
-0.261797
-1.22433
-0.234481
-1.24059
-0.208711
-1.25353
-0.193194
-1.26067
-0.171862
-1.26583
-0.148523
-1.28284
-0.128844
-1.2935
-0.110497
-1.30813
-0.0940129
-1.32464
-0.0765887
-1.34626
-0.0610624
-1.36562
-0.0468633
-1.38245
-0.0348685
-1.39424
-0.0224859
-1.40116
-0.0101981
-1.38558
-1.32168
-0.0482671
-0.496336
-0.0898568
-0.513306
-0.128379
-0.566374
-0.167516
-0.636792
-0.212007
-0.716835
-0.255118
-0.796879
-0.291543
-0.866138
-0.316069
-0.924074
-0.339903
-0.9749
-0.355034
-1.02766
-0.35645
-1.0695
-0.348374
-1.11479
-0.331517
-1.15702
-0.308034
-1.19463
-0.280533
-1.22409
-0.252566
-1.24577
-0.226868
-1.26053
-0.20485
-1.26781
-0.180532
-1.27442
-0.157494
-1.2913
-0.137772
-1.30253
-0.11904
-1.31859
-0.101822
-1.33191
-0.0838926
-1.35454
-0.0678479
-1.37439
-0.0528935
-1.39401
-0.0397555
-1.40826
-0.0255654
-1.42127
-0.0116647
-1.40887
-1.34833
-0.0511322
-0.444031
-0.0953079
-0.46181
-0.136432
-0.51294
-0.177176
-0.58042
-0.222394
-0.657759
-0.265028
-0.737159
-0.300415
-0.805883
-0.323859
-0.865842
-0.348603
-0.921344
-0.366469
-0.978694
-0.370608
-1.02697
-0.365969
-1.08014
-0.352362
-1.13135
-0.331646
-1.17838
-0.305389
-1.21725
-0.276825
-1.24669
-0.249685
-1.2662
-0.22317
-1.2774
-0.196204
-1.28438
-0.172738
-1.29866
-0.151811
-1.3105
-0.131889
-1.32387
-0.111766
-1.34044
-0.0920348
-1.36441
-0.076075
-1.38575
-0.0605887
-1.40719
-0.0452801
-1.42618
-0.0293302
-1.44594
-0.0141663
-1.43424
-1.37646
-0.0533104
-0.389193
-0.100117
-0.40652
-0.144029
-0.456601
-0.186554
-0.522572
-0.230121
-0.599013
-0.271739
-0.677189
-0.306822
-0.745846
-0.329333
-0.808695
-0.354681
-0.866269
-0.375074
-0.927827
-0.382083
-0.981971
-0.3811
-1.04116
-0.371189
-1.09974
-0.353735
-1.15488
-0.329338
-1.20323
-0.300685
-1.24218
-0.270878
-1.27025
-0.240224
-1.28791
-0.210229
-1.2976
-0.184971
-1.30814
-0.162567
-1.31725
-0.138767
-1.33372
-0.119932
-1.35443
-0.102702
-1.37675
-0.0852956
-1.399
-0.0692379
-1.4236
-0.0530906
-1.44903
-0.033541
-1.47127
-0.0164801
-1.45734
-1.38939
-0.053888
-0.332885
-0.10315
-0.348216
-0.14928
-0.39828
-0.191342
-0.465046
-0.234242
-0.540336
-0.27444
-0.617804
-0.308558
-0.686712
-0.331309
-0.751885
-0.357656
-0.811618
-0.379846
-0.875916
-0.389594
-0.935947
-0.392283
-0.999091
-0.386227
-1.06364
-0.372648
-1.1252
-0.351537
-1.18255
-0.324507
-1.23174
-0.293755
-1.27087
-0.261088
-1.29745
-0.228292
-1.31251
-0.198286
-1.32352
-0.171038
-1.33217
-0.151692
-1.35171
-0.130708
-1.37105
-0.112888
-1.39112
-0.0952353
-1.41662
-0.0786491
-1.4455
-0.059376
-1.4696
-0.0385056
-1.48458
-0.0172053
-1.47565
-1.41062
-0.0572396
-0.272689
-0.106667
-0.289826
-0.151599
-0.341567
-0.193468
-0.408255
-0.234874
-0.483116
-0.273152
-0.560047
-0.305442
-0.629769
-0.328691
-0.697116
-0.356454
-0.757908
-0.37949
-0.823227
-0.392311
-0.889913
-0.398264
-0.955088
-0.395678
-1.02452
-0.384132
-1.09179
-0.367416
-1.15652
-0.345339
-1.21419
-0.31572
-1.26583
-0.281765
-1.30346
-0.247525
-1.32657
-0.211989
-1.34653
-0.186314
-1.35294
-0.160236
-1.3708
-0.14108
-1.38902
-0.122476
-1.40937
-0.104977
-1.43653
-0.0865172
-1.46813
-0.0648441
-1.48849
-0.0438804
-1.50661
-0.0206153
-1.49942
-1.4437
-0.059278
-0.209985
-0.106796
-0.232518
-0.15153
-0.28491
-0.192419
-0.352353
-0.232512
-0.427792
-0.268671
-0.504547
-0.299297
-0.575646
-0.323399
-0.644391
-0.351271
-0.706951
-0.376504
-0.770308
-0.39066
-0.844131
-0.396758
-0.912098
-0.398116
-0.98338
-0.393359
-1.05454
-0.381788
-1.12464
-0.363145
-1.18991
-0.33693
-1.25279
-0.304397
-1.30403
-0.268726
-1.33752
-0.232924
-1.3657
-0.19506
-1.38167
-0.173296
-1.38978
-0.151907
-1.40726
-0.132606
-1.42923
-0.114292
-1.45198
-0.0926636
-1.47853
-0.0708255
-1.50483
-0.0495327
-1.53635
-0.0261328
-1.53172
-1.47171
-0.0607668
-0.145442
-0.106772
-0.176624
-0.15006
-0.229508
-0.189525
-0.298223
-0.228065
-0.37448
-0.262051
-0.451656
-0.291113
-0.524505
-0.31599
-0.594064
-0.343468
-0.658206
-0.366842
-0.721617
-0.382547
-0.797977
-0.392431
-0.868462
-0.397984
-0.940207
-0.397841
-1.01383
-0.390742
-1.08831
-0.376516
-1.16078
-0.353904
-1.23273
-0.324614
-1.29492
-0.288607
-1.34289
-0.253767
-1.37783
-0.220559
-1.40218
-0.189808
-1.41635
-0.163516
-1.43102
-0.141033
-1.44597
-0.121561
-1.46494
-0.100704
-1.48889
-0.0777677
-1.51886
-0.0546263
-1.54794
-0.0288701
-1.54602
-1.48407
-0.0588852
-0.0810139
-0.106064
-0.120537
-0.147127
-0.17646
-0.184882
-0.246431
-0.221625
-0.323386
-0.25342
-0.401575
-0.280906
-0.47629
-0.306419
-0.546263
-0.333606
-0.61108
-0.354836
-0.677783
-0.373093
-0.751455
-0.386535
-0.823492
-0.39484
-0.896024
-0.397447
-0.971421
-0.394465
-1.04836
-0.385056
-1.12663
-0.367119
-1.20685
-0.340304
-1.27827
-0.306745
-1.33948
-0.271582
-1.38442
-0.23766
-1.4176
-0.205915
-1.438
-0.177848
-1.45235
-0.152408
-1.46667
-0.130713
-1.48106
-0.109064
-1.5091
-0.0834415
-1.53546
-0.0582161
-1.56238
-0.0304873
-1.55868
-1.49514
-0.0579735
-0.0165839
-0.104906
-0.0652184
-0.144196
-0.125503
-0.179527
-0.197481
-0.21437
-0.274824