/*--------------------------------*- C++ -*----------------------------------*\
| =========                 |                                                 |
| \\      /  F ield         | OpenFOAM: The Open Source CFD Toolbox           |
|  \\    /   O peration     | Version:  2112                                  |
|   \\  /    A nd           | Website:  www.openfoam.com                      |
|    \\/     M anipulation  |                                                 |
\*---------------------------------------------------------------------------*/
FoamFile
{
    version     2.0;
    format      ascii;
    arch        "LSB;label=32;scalar=64";
    class       surfaceScalarField;
    location    "0.00035";
    object      phi;
}
// * * * * * * * * * * * * * * * * * * * * * * * * * * * * * * * * * * * * * //

dimensions      [1 0 -1 0 0 0 0];

oriented        oriented;

internalField   nonuniform List<scalar> 
27436
(
-0.586425
8.22318
-0.105601
7.44423
-0.091132
7.78796
-0.0813264
7.8039
-0.0648283
7.77877
-0.0550242
7.77233
-0.0456406
7.77558
-0.0356241
7.7758
-0.0246594
7.77545
-0.0148401
7.77583
-0.00347094
7.77355
0.00732345
7.77771
0.0176755
7.77375
0.0283707
7.77344
0.0389259
7.77763
0.0489833
7.77523
0.0594759
7.77534
0.0712616
7.7695
0.0783361
7.77161
0.0925978
7.76532
0.109199
7.78315
0.112226
7.80751
0.125923
7.79829
0.573942
7.46961
8.22626
-0.250102
8.47999
-0.08367
7.29471
-0.0613233
7.76249
-0.0592137
7.80358
-0.0561571
7.76622
-0.045844
7.74005
-0.0359161
7.753
-0.0286296
7.75785
-0.0194779
7.75165
-0.0105253
7.75163
-0.00262628
7.74884
0.00574132
7.75824
0.0143683
7.75556
0.0226774
7.75406
0.031014
7.7588
0.0388478
7.75871
0.0485307
7.75258
0.055852
7.74388
0.0653424
7.74532
0.0733564
7.74108
0.0793089
7.77611
0.079284
7.81037
0.0982841
7.78043
0.258539
7.31055
8.49105
-0.246489
8.72118
-0.149669
7.20915
-0.126227
7.73584
-0.114482
7.79481
-0.0998019
7.75578
-0.0900767
7.73494
-0.0801932
7.75024
-0.0718947
7.75752
-0.0633645
7.7534
-0.0517597
7.75251
-0.0406052
7.7505
-0.0287224
7.75729
-0.0174294
7.75611
-0.00630975
7.75556
0.00451372
7.75819
0.0154749
7.75988
0.0246665
7.75392
0.0339388
7.74609
0.041867
7.74476
0.0539315
7.73495
0.0677858
7.7664
0.0746717
7.80663
0.0849613
7.77102
0.190022
7.2074
8.69091
-0.181552
8.87489
-0.135618
7.16157
-0.14263
7.73623
-0.123879
7.77655
-0.106273
7.74497
-0.0951138
7.7312
-0.0830707
7.74576
-0.0726006
7.75549
-0.0615316
7.75294
-0.0473332
7.75073
-0.0332079
7.75081
-0.018135
7.75408
-0.003725
7.75429
0.0103903
7.75404
0.0239857
7.75516
0.0375718
7.75852
0.0491367
7.7541
0.0614834
7.74979
0.0717072
7.74612
0.0867398
7.73119
0.102628
7.75644
0.118612
7.79323
0.101989
7.7873
0.169505
7.1466
8.86335
-0.10095
8.96371
-0.0615842
7.11103
-0.110738
7.78455
-0.0750669
7.74165
-0.057279
7.73412
-0.0503138
7.73227
-0.0430986
7.75018
-0.0379125
7.76282
-0.0304288
7.75849
-0.0166817
7.75189
-0.00268497
7.75392
0.0103323
7.75693
0.0219109
7.75779
0.0337761
7.75776
0.0460019
7.75858
0.0582413
7.7622
0.0661929
7.76282
0.0735693
7.76076
0.0777853
7.75673
0.087935
7.73222
0.103694
7.74639
0.126373
7.77384
0.0897606
7.82427
0.101498
7.14426
8.95761
0.0620834
8.93489
0.0295757
7.14106
-0.0667297
7.88213
-0.0297858
7.71489
-0.0234761
7.7376
-0.0185214
7.73859
-0.014461
7.75829
-0.0148915
7.77616
-0.0119354
7.77112
-0.0057673
7.76123
0.00201451
7.76253
0.0107924
7.76415
0.0212033
7.76293
0.030584
7.76408
0.0365208
7.76707
0.0417821
7.77144
0.0454169
7.77468
0.0472817
7.77759
0.04932
7.77023
0.057068
7.73913
0.0580316
7.75393
0.0914106
7.74605
-0.0051676
7.92275
0.014704
7.13615
8.96322
0.255203
8.7231
0.103771
7.3044
-0.0267092
8.02581
0.0106559
7.68674
-0.00858994
7.77358
-0.0311502
7.77736
-0.0543758
7.7998
-0.0747045
7.81119
-0.0896764
7.80002
-0.098873
7.78684
-0.111306
7.79159
-0.12253
7.79066
-0.131861
7.78762
-0.142368
7.79078
-0.156012
7.79413
-0.16899
7.79855
-0.185076
7.80835
-0.203752
7.81375
-0.228877
7.81303
-0.251754
7.78011
-0.268433
7.78424
-0.286566
7.77382
-0.337985
7.98905
-0.628031
7.44459
8.34071
0.916581
7.84087
0.545031
7.69417
0.425948
8.1719
0.329316
7.81336
0.28203
7.84951
0.251714
7.83874
0.213187
7.86181
0.173276
7.87431
0.13941
7.85373
0.109288
7.83959
0.0825446
7.83476
0.0572916
7.8302
0.0367056
7.82176
0.0126946
7.82801
-0.0173414
7.84083
-0.0508198
7.85218
-0.0847453
7.8617
-0.121519
7.87361
-0.158383
7.87339
-0.189464
7.84798
-0.246796
7.86662
-0.319159
7.87825
-0.440454
8.13502
-0.736669
7.76195
7.61592
0.849304
7.02774
0.453862
8.14888
0.300707
8.3825
0.230859
7.92825
0.17769
7.95801
0.142574
7.92239
0.113199
7.91882
0.0997056
7.91073
0.0927133
7.88213
0.0871056
7.86645
0.0807397
7.85643
0.0768702
7.84613
0.0740895
7.83571
0.0691699
7.84207
0.0622407
7.86227
0.0589823
7.8733
0.0531494
7.8913
0.0390448
7.91089
0.0084717
7.93154
-0.0292567
7.93402
-0.0863593
7.97577
-0.131702
7.97188
-0.293239
8.3684
-0.652309
8.17079
7.00252
-2.63726
9.62729
-3.58942
9.19034
-3.00469
7.99605
-2.85909
7.88523
-2.47779
7.67555
-2.08778
7.60627
-1.76051
7.63822
-1.42827
7.60249
-1.09851
7.5744
-0.786804
7.56893
-0.490214
7.57042
-0.202261
7.56476
0.0934407
7.54653
0.384509
7.5553
0.680509
7.57427
0.986767
7.57882
1.31199
7.59155
1.63879
7.60608
1.96839
7.64871
2.35222
7.62427
2.71576
7.7103
2.90254
7.91205
3.36197
8.10616
2.30799
9.28933
9.24097
-2.30206
11.8953
-5.19589
12.1491
-4.63331
7.72047
-4.55342
7.82756
-3.86358
7.117
-3.14861
7.03554
-2.6203
7.18459
-2.05791
7.11266
-1.52129
7.08222
-1.01627
7.09662
-0.547832
7.10915
-0.105659
7.12194
0.335122
7.10191
0.781715
7.10908
1.25989
7.10384
1.76698
7.10377
2.31077
7.08514
2.87657
7.10215
3.40425
7.19163
4.15385
7.01787
4.86649
7.14011
4.91794
7.86543
5.31865
8.01425
1.5738
13.12
10.7097
1.25357
10.7489
2.12004
11.6405
-0.524111
10.3917
-4.02263
11.7084
-4.10972
7.81554
-3.4191
6.49792
-3.14037
7.05873
-2.4481
6.48322
-1.75436
6.46914
-1.25374
6.61857
-0.722444
6.57663
-0.235223
6.61678
0.250591
6.59208
0.740266
6.60516
1.28139
6.56292
1.80938
6.60053
2.48081
6.4842
3.17134
6.46285
3.40691
7.08969
4.15642
6.43165
3.87639
8.02128
0.332161
11.959
-2.08221
10.6058
-0.805345
12.1365
10.0151
1.45738
9.38813
2.48769
10.7101
2.67633
10.1898
3.66056
10.9307
2.75885
9.64794
0.41044
9.47844
-2.25383
9.79122
-2.21235
6.7453
-1.65481
6.01818
-1.3231
6.35686
-0.695719
5.93712
-0.267698
6.13295
0.190908
6.05924
0.637965
6.10011
1.25715
5.92704
1.63522
6.28693
2.14552
6.04382
2.17004
6.77268
-0.518893
9.86002
-3.00936
9.51786
-3.96137
9.82304
-2.77177
11.0088
-2.54316
10.3782
-0.977741
10.6746
9.13671
1.16513
8.30759
2.47522
9.44963
3.20138
9.46577
4.71805
9.52827
4.84993
9.65987
5.04613
9.19216
5.79113
9.17801
4.36485
8.87233
1.7028
9.28102
-0.211089
8.13398
-0.661202
6.35787
-0.518981
5.86258
-0.0850861
5.51097
0.0910608
5.80632
-0.554569
6.49331
-2.52029
8.21588
-5.05285
9.21602
-6.51533
8.94388
-5.75587
9.24042
-5.58815
9.24997
-5.48396
9.81043
-3.86886
9.51082
-2.97816
9.44774
-1.33031
9.03512
7.89187
0.937354
7.50096
2.45274
7.88766
3.72796
8.12786
4.91413
8.22281
6.0057
8.68372
6.60853
8.63049
6.95699
8.78906
7.62434
8.23419
8.53917
8.35722
7.98389
8.68173
4.85607
9.64912
1.60687
8.66187
-1.54197
8.20436
-4.56697
8.42557
-7.42579
9.34008
-7.85881
8.63301
-7.00212
8.34636
-6.3158
8.27211
-5.94103
8.81853
-5.34172
8.67454
-4.18768
8.74224
-3.03895
8.21047
-1.71972
8.06571
-0.58835
7.7891
7.44569
0.464037
7.40775
1.36848
7.27884
2.33319
7.44221
3.25524
7.56577
4.46595
7.68155
5.57668
7.73005
6.48022
7.97918
6.94747
7.83289
7.38429
7.9691
7.30806
8.61083
6.34374
9.77072
2.70519
11.1338
-1.80988
12.2271
-5.53093
11.1309
-6.67275
9.72518
-6.75093
8.60483
-6.33756
7.99754
-5.84592
7.84346
-4.92807
7.96529
-3.81597
7.74962
-2.5826
7.69333
-1.72775
7.56364
-0.858572
7.4579
-0.0391019
7.32333
7.85659
1.18002
6.61147
2.03598
6.92934
2.86379
7.0556
3.67892
7.15831
4.51601
7.24613
5.26031
7.35498
6.03852
7.53942
6.19854
7.68169
5.44904
8.40318
4.0921
9.3528
2.5336
11.036
0.758426
12.7759
-0.661894
13.405
-2.5143
12.7586
-4.27059
11.1668
-5.61927
9.40789
-6.33087
8.41499
-6.2396
7.83648
-5.53433
7.60202
-4.85089
7.45475
-4.08156
7.37281
-3.34769
7.28771
-2.56217
7.15344
-1.69876
6.93664
6.60967
1.86511
5.02279
2.94094
6.17538
3.61357
6.76276
4.12362
7.03611
4.4473
7.26696
4.47701
7.54292
4.08879
7.93764
3.10723
8.5375
1.61209
9.51604
-0.0511055
10.4672
-0.935718
11.6126
-0.911184
12.8627
-0.245658
13.0721
-0.345693
12.9887
-1.48263
11.9337
-3.08013
10.5223
-4.47732
9.51162
-5.25167
8.46434
-5.48803
7.89808
-5.31363
7.52387
-4.8361
7.25558
-4.17607
7.01548
-3.36564
6.70869
-2.1397
6.0221
4.72563
2.64658
2.51794
4.9238
4.10938
6.05218
5.89082
6.59063
6.76093
6.72748
7.32207
6.39943
7.88766
5.54088
8.55572
4.19903
9.39606
2.66114
10.4036
1.30767
11.4355
0.426644
12.3978
0.389955
13.2165
0.609528
13.509
0.685184
13.3355
-0.0584921
12.5853
-1.48234
11.5558
-3.10588
10.4974
-4.57764
9.43669
-5.51564
8.58876
-5.89865
7.91103
-5.80283
7.32952
-5.30475
6.7657
-4.2909
5.9503
-2.33333
4.28991
2.55834
1.26463
1.30722
2.85344
2.69072
4.18974
4.78667
5.15436
6.00656
5.67383
6.89799
5.54792
7.86693
4.76932
8.93427
3.5128
10.1151
2.1226
11.343
0.933228
12.4832
0.137029
13.4223
-0.247883
14.0794
-0.412638
14.3153
-0.672097
14.1114
-1.32978
13.4697
-2.44122
12.5248
-3.77625
11.3818
-5.00831
10.1426
-5.77082
8.95992
-5.90039
7.88766
-5.4072
6.91158
-4.45542
6.02105
-3.08045
4.81119
-1.34276
2.72534
1.27314
0.45528
0.848445
0.845619
2.24311
1.70227
3.94188
2.59884
5.17668
3.16495
6.34823
3.25186
7.57228
2.72075
9.02481
1.76857
10.5628
0.763896
12.0454
0.0363477
13.3212
-0.378637
14.274
-0.463157
14.9037
-0.405139
15.0855
-0.443452
14.875
-0.751443
14.2619
-1.43027
13.3119
-2.37027
12.0283
-3.24911
10.5335
-3.69842
8.98604
-3.54031
7.52524
-2.89849
6.29013
-1.93475
5.12369
-0.996028
3.88383
-0.482866
2.16891
0.786488
-0.227369
1.07971
-0.0785408
2.09879
0.488675
3.35712
1.08771
4.60812
1.51676
5.93604
1.61688
7.3499
1.20748
9.01119
0.498943
10.8273
-0.131069
12.5099
-0.496149
13.8939
-0.51709
14.9161
-0.245273
15.5497
0.110203
15.7528
0.37717
15.5369
0.377942
14.9071
0.0196888
13.867
-0.584891
12.4737
-1.27321
10.7692
-1.64736
8.94262
-1.52148
7.28468
-1.07966
5.86904
-0.471765
4.54227
0.0832651
3.31367
0.227104
2.01588
1.01697
-0.315141
1.41579
-0.473055
2.27867
-0.176413
3.11473
0.114811
4.24412
0.322063
5.5605
0.288225
7.04063
-0.0916517
8.81366
-0.657863
10.8126
-1.02654
12.6928
-1.04119
14.1934
-0.715643
15.2725
-0.108402
15.9154
0.591739
16.1476
1.19515
15.9272
1.50805
15.2979
1.47076
14.2019
1.06487
12.6991
0.452829
10.8219
-0.0254508
8.81843
-0.110347
7.0274
0.0512739
5.54755
0.343981
4.16825
0.605084
3.10802
0.360699
2.26944
1.40138
-0.314252
1.92051
-0.783181
2.76797
-0.915319
3.30912
-0.801747
4.16472
-0.851547
5.43227
-1.05822
6.85293
-1.52391
8.62676
-2.05202
10.6415
-2.27081
12.6264
-2.05163
14.2517
-1.45962
15.4143
-0.599438
16.0553
0.36463
16.2893
1.24129
16.0583
1.86308
15.4158
2.10537
14.2431
1.91156
12.6119
1.41672
10.6221
0.980503
8.60067
0.801042
6.81062
0.770972
5.40806
0.872587
4.09905
0.745432
3.29419
0.283604
2.73465
1.91981
0.129338
2.77858
-0.434604
3.43228
-1.01657
3.82917
-1.20949
4.2728
-1.34522
5.41253
-1.69728
6.75405
-2.15068
8.46265
-2.55539
10.4385
-2.64801
12.3854
-2.31489
14.0441
-1.55811
15.2923
-0.56776
15.997
0.50951
16.2638
1.49936
16.0042
2.2587
15.2949
2.58962
14.0308
2.4972
12.3539
2.10048
10.3976
1.66029
8.41981
1.33233
6.69469
1.21908
5.33812
0.979392
4.20945
0.403796
3.80894
-0.174677
3.38924
2.67625
0.357249
3.98397
-0.259741
4.40912
-0.914634
4.53754
-1.33516
4.62398
-1.58114
5.35849
-1.90457
6.66171
-2.4138
8.28386
-2.79451
10.2082
-2.80509
12.159
-2.36947
13.8252
-1.53689
14.9781
-0.449985
15.6495
0.739186
15.9036
1.82244
15.6543
2.63635
14.9833
3.05598
13.8146
3.0271
12.1427
2.62898
10.1891
2.08701
8.26151
1.72526
6.65685
1.47796
5.2725
1.01249
4.64224
0.317757
4.55475
-0.266364
4.4293
4.02563
-0.342736
5.18313
-0.474206
5.66212
-0.802617
5.65934
-1.40693
5.3932
-1.77609
5.66666
-2.08815
6.68552
-2.50518
8.26936
-2.95921
9.9618
-3.06493
11.8473
-2.70439
13.5918
-1.86459
14.7293
-0.790275
15.3146
0.375183
15.5275
1.44757
15.3009
2.29998
14.6928
2.68561
13.5142
2.62958
11.7666
2.23208
9.89491
1.87066
8.2132
1.58323
6.68241
1.24372
5.56103
0.665105
5.39657
0.338687
5.66962
0.204444
5.67096
5.08194
-1.35807
6.38176
-1.09014
6.28811
-1.07695
6.55781
-1.05017
6.61047
-1.4054
6.9168
-1.72463
6.92581
-2.04646
8.17909
-2.45172
9.91807
-2.54688
11.6518
-2.19194
13.3129
-1.44376
14.5862
-0.444991
15.2435
0.650892
15.4694
1.6337
15.2155
2.3368
14.5338
2.65803
13.2333
2.53455
11.5749
2.14053
9.84411
1.81755
8.15955
1.47992
6.99201
1.10336
6.90549
1.15233
6.58699
1.16978
6.5689
1.44272
6.30445
6.32863
-1.96162
3.92703
-2.10289
5.60147
-1.65379
6.27452
-1.39809
6.86934
-1.34068
7.40967
-1.41032
8.07949
-1.61816
9.28022
-1.89914
10.5104
-2.0178
11.9864
-1.73161
13.2911
-1.0526
14.4054
-0.206599
15.0365
0.697702
15.2904
1.51479
15.0147
2.1313
14.3638
2.37031
13.2256
2.2127
11.9504
1.8891
10.4858
1.6569
9.26909
1.58348
8.1619
1.59538
7.41822
1.85126
6.89119
2.32427
6.28475
2.18333
5.58357
3.94154
-0.739784
0.531716
-1.91091
1.87366
-2.10181
3.88643
-1.9119
5.85551
-1.72782
6.75991
-1.61546
8.07288
-1.6478
9.4964
-1.73891
11.2465
-1.78136
12.9251
-1.61191
13.6724
-1.1941
14.1204
-0.617347
14.4621
0.0250143
14.5527
0.618501
14.3996
1.06257
14.0282
1.28511
13.5352
1.30656
12.8046
1.27448
11.1251
1.30707
9.40542
1.48511
8.04961
1.69604
6.7226
1.91051
5.80908
1.7351
3.79306
0.619942
1.78547
0.503194
-0.0377726
0.0419059
-0.250069
0.124482
-0.797087
0.491586
-1.23683
1.97211
-1.34076
3.29845
-1.23073
5.57704
-1.04699
7.30897
-0.863306
9.25435
-0.832013
11.1524
-0.7793
12.5603
-0.465903
12.939
-0.0930202
12.7879
0.294642
12.6268
0.681373
12.7399
0.98299
12.8708
1.00706
12.4933
1.02211
11.1112
1.19013
9.21021
1.34687
7.30215
1.4299
5.53594
1.29238
3.26436
0.812288
1.91986
0.247599
0.466705
0.0368957
0.117618
0.0405122
0.000664182
0.0178451
-0.0037398
0.0205366
-0.0349067
0.0435691
-0.146785
0.135191
-0.35022
0.40565
-0.480969
1.3584
-0.449622
2.65227
-0.335416
3.74872
-0.343214
4.66929
-0.394348
5.53693
-0.291614
6.17933
-0.0515769
6.58885
0.2007
6.69248
0.43833
6.58112
0.528404
6.17216
0.45402
5.53402
0.431188
4.67272
0.535781
3.752
0.542288
2.65073
0.377613
1.32621
0.155489
0.39332
0.0368869
0.129524
0.00441941
0.0418397
-0.000135634
0.0203113
0.0180106
-0.00019945
0.0185011
-0.00161833
0.0185675
-0.00299317
0.0188543
-0.00400028
0.0218704
-0.0117677
0.0383685
-0.0375582
0.0854333
-0.0620838
0.192215
-0.0619038
0.369975
-0.0889539
0.587308
-0.131196
0.937516
-0.144153
1.40963
-0.081426
1.79621
0.0200611
1.93257
0.088123
1.79058
0.0887218
1.4078
0.0568192
0.939728
0.0398902
0.591535
0.04708
0.372159
0.0296469
0.19105
0.00831492
0.0837717
0.0026222
0.03761
0.00232048
0.0216193
0.00116043
0.0187804
-0.000196491
0.0184781
0.0182843
-3.99229e-05
0.019036
-0.00139073
0.019171
-0.00262884
0.0191167
-0.0021535
0.0193798
-0.000898718
0.0201882
0.000643286
0.0217056
0.00219084
0.0258212
0.00328613
0.0340101
0.00226001
0.0428301
-0.000594548
0.0556728
-0.00257169
0.0742494
-0.000387115
0.0936376
0.00447258
0.102291
0.00582709
0.0934602
0.00292615
0.0743258
-0.000556543
0.0558337
-0.00200808
0.0430352
-0.00129768
0.034101
-8.84527e-05
0.0257467
0.00130461
0.0216811
0.00248252
0.0201972
0.00292308
0.0193917
0.00164403
0.0191273
0.000263184
0.0191747
0.0190884
4.30486e-05
0.0193294
-0.00115876
0.0196239
-0.00224508
0.0196809
-0.0017307
0.0200765
-0.000617783
0.0205874
0.000474217
0.0210941
0.00126538
0.0215315
0.0015696
0.0218314
0.00148884
0.022011
0.00119414
0.0221779
0.00079977
0.022425
0.000389194
0.0227568
-1.62144e-05
0.0229392
-0.000443556
0.0227554
-0.000859787
0.0224281
-0.00117287
0.0221804
-0.0012683
0.0220135
-0.00098156
0.021836
-0.000206938
0.0215399
0.000878839
0.0211175
0.00196248
0.0206066
0.00246105
0.0200772
0.00135679
0.0197608
0.000114113
0.0197377
0.0195474
-0.000443841
0.0200352
-0.00157938
0.0202178
-0.00256145
0.0202815
-0.00200714
0.0206176
-0.000956545
0.021143
3.08742e-05
0.0215985
0.000693606
0.0218987
0.000900207
0.0220633
0.000796835
0.0221415
0.000532917
0.0221745
0.000207762
0.0221894
-0.00013429
0.0221985
-0.00047896
0.0222023
-0.000820451
0.0221985
-0.00114544
0.0221896
-0.00141027
0.0221755
-0.00151401
0.0221433
-0.00130372
0.0220646
-0.000643783
0.0219009
0.00032143
0.0215894
0.00142411
0.0211501
0.00201896
0.0206539
0.00110091
0.0202391
4.43285e-05
0.0201541
0.0198227
-0.00023214
0.0204234
-0.00121601
0.0206722
-0.00201312
0.020755
-0.00139327
0.0211136
-0.000344257
0.0215916
0.000535652
0.0219981
0.0011079
0.02226
0.00126854
0.0223966
0.00115703
0.022453
0.000911621
0.0224712
0.000618683
0.0224764
0.000313474
0.0224779
6.28722e-06
0.0224782
-0.000298912
0.0224779
-0.000591292
0.0224763
-0.000835366
0.022471
-0.000945499
0.022453
-0.000785728
0.0223969
-0.000213622
0.0222612
0.00067693
0.0220021
0.00169473
0.0216017
0.00229595
0.0211253
0.00146819
0.0207719
0.000467907
0.0206845
0.0204683
-0.000115512
0.0206111
-0.000963999
0.0210179
-0.00163516
0.0211496
-0.00101182
0.0215982
-8.36529e-06
0.0220219
0.000729241
0.0223716
0.00119644
0.0226059
0.00129041
0.0227201
0.00114641
0.0227657
0.000889811
0.0227797
0.000594995
0.0227831
0.000290698
0.0227838
-1.51597e-05
0.0227839
-0.000319481
0.0227838
-0.000614237
0.0227831
-0.000870852
0.0227795
-0.00101601
0.0227651
-0.000926106
0.0227202
-0.000464075
0.0226076
0.000294976
0.0223865
0.00125706
0.0220223
0.00186431
0.0215832
0.00117203
0.0212198
0.000284445
0.0211135
0.0208219
-0.000551962
0.0211899
-0.00134644
0.0214895
-0.00194561
0.0216226
-0.00134491
0.0219887
-0.000456439
0.0223949
0.000239919
0.0227185
0.000646048
0.0229067
0.000716205
0.0230006
0.000583233
0.0230369
0.000356353
0.0230483
9.8091e-05
0.0230511
-0.000167774
0.0230517
-0.000434997
0.0230517
-0.000701035
0.0230517
-0.000959814
0.0230512
-0.00118809
0.0230486
-0.00132212
0.0230377
-0.00124913
0.0230011
-0.000840141
0.0229062
-0.000147507
0.0227049
0.000777518
0.022396
0.00140635
0.0220092
0.000859071
0.021558
0.000129855
0.0214127
0.0209638
-0.000317358
0.0214927
-0.00098323
0.021841
-0.00144635
0.021978
-0.000841084
0.0223505
2.2603e-05
0.0227135
0.000632142
0.0229989
0.00098792
0.0231638
0.00104442
0.0232425
0.00092323
0.023272
0.000723454
0.0232807
0.000499042
0.0232828
0.000268946
0.0232832
3.79498e-05
0.0232832
-0.000192077
0.0232832
-0.00041613
0.0232828
-0.000614758
0.0232807
-0.000734177
0.0232718
-0.000676938
0.0232423
-0.000320093
0.0231635
0.000304582
0.023
0.00114028
0.0227152
0.00173378
0.0223489
0.00124371
0.0219787
0.000557029
0.0218354
0.0215055
-0.00016137
0.021602
-0.00072184
0.0221053
-0.00110164
0.0222665
-0.000539698
0.0227054
0.000219663
0.0230226
0.000755061
0.0232659
0.00103682
0.0234152
0.00105247
0.0234812
0.000913853
0.0235052
0.00070907
0.0235118
0.000484256
0.0235133
0.000254936
0.0235136
2.49051e-05
0.0235136
-0.000204407
0.0235136
-0.000429137
0.0235133
-0.000633638
0.0235117
-0.000772316
0.0235046
-0.000758615
0.0234806
-0.000479504
0.0234149
2.95916e-05
0.0232755
0.00079752
0.023018
0.00134917
0.0226884
0.000947831
0.0223277
0.000348752
0.0221789
0.0218059
-0.000551885
0.022087
-0.00107747
0.0224765
-0.00141994
0.022633
-0.00090404
0.0229821
-0.000226681
0.023283
0.000243679
0.0235103
0.000489025
0.0236283
0.000499981
0.0236834
0.000380543
0.023703
0.00020547
0.0237088
1.33176e-05
0.0237101
-0.000182391
0.0237103
-0.000378856
0.0237104
-0.000574778
0.0237103
-0.000767175
0.0237101
-0.000943465
0.023709
-0.00106451
0.0237037
-0.00105266
0.0236842
-0.000806149
0.0236289
-0.000321065
0.0235005
0.000372541
0.023285
0.000904003
0.0229971
0.000606946
0.0225704
0.000138578
0.0224081
0.0218767
-0.000309673
0.0223279
-0.000734969
0.0227422
-0.000983566
0.0228921
-0.000492386
0.0232374
0.000133493
0.0235012
0.000556415
0.0237015
0.000772976
0.0238059
0.000784852
0.0238524
0.000683892
0.0238686
0.000536803
0.023873
0.000376506
0.023874
0.000213378
0.0238741
4.98191e-05
0.0238741
-0.000113272
0.0238741
-0.000273367
0.0238739
-0.000419679
0.023873
-0.000519254
0.0238685
-0.000506669
0.0238523
-0.000289346
0.0238059
0.000127073
0.0237024
0.000747781
0.0235037
0.00123288
0.0232358
0.000963386
0.0228922
0.000521197
0.0227386
0.0223238
-0.000130826
0.0223931
-0.000478749
0.022952
-0.000675624
0.0230978
-0.000246083
0.0234889
0.000292089
0.0237165
0.00064938
0.0238848
0.000813312
0.0239804
0.000799524
0.0240194
0.000689175
0.0240324
0.000540347
0.0240357
0.000380792
0.0240363
0.000218971
0.0240365
5.68036e-05
0.0240365
-0.000105006
0.0240365
-0.000264482
0.0240363
-0.000412961
0.0240355
-0.000522901
0.0240318
-0.000537576
0.0240185
-0.000374895
0.0239795
-3.56568e-05
0.0238918
0.000501911
0.0237125
0.000927655
0.0234795
0.000708867
0.0231596
0.000325683
0.0230188
0.022602
-0.000477822
0.0228917
-0.000816193
0.0233135
-0.000995491
0.0234017
-0.00061072
0.0236946
-0.000142636
0.0238945
0.000160414
0.0240484
0.000305219
0.0241213
0.000297171
0.0241539
0.000209105
0.0241648
8.86645e-05
0.0241679
-4.10348e-05
0.0241685
-0.000172785
0.0241687
-0.000304851
0.0241687
-0.000436647
0.0241687
-0.000566656
0.0241686
-0.000688068
0.024168
-0.000777772
0.0241654
-0.000785889
0.0241548
-0.000641283
0.0241227
-0.00032329
0.0240432
0.000157796
0.0238997
0.00054965
0.02371
0.000406592
0.0233623
0.000112916
0.0232712
0.0227284
-0.000268788
0.0233816
-0.00056376
0.0237243
-0.000660678
0.023694
-0.00029971
0.0239443
0.000123496
0.0240605
0.000397497
0.0241794
0.000525422
0.0242374
0.000523034
0.0242629
0.000452609
0.0242714
0.000355893
0.0242737
0.000252096
0.0242742
0.000146852
0.0242742
4.13914e-05
0.0242742
-6.38347e-05
0.0242742
-0.000167522
0.0242742
-0.000263752
0.0242737
-0.000333158
0.0242715
-0.000334701
0.0242631
-0.000205295
0.024238
6.19185e-05
0.0241812
0.000487492
0.0240668
0.000848337
0.0239466
0.00073496
0.0236978
0.000428919
0.0237288
0.0233638
-0.000132205
0.02351
-0.000445685
0.0241476
-0.000485222
0.0240294
-0.00015421
0.0242685
0.000225347
0.0242621
0.000469399
0.0243232
0.000568597
0.0243563
0.000553533
0.0243706
0.000480063
0.0243754
0.000384743
0.0243765
0.000283689
0.0243767
0.000181476
0.0243767
7.90875e-05
0.0243767
-2.31057e-05
0.0243767
-0.000124077
0.0243767
-0.000218969
0.0243763
-0.000291518
0.0243749
-0.000305974
0.0243698
-0.000205227
0.0243553
2.54205e-05
0.0243274
0.000408516
0.0242602
0.000739601
0.0242618
0.000689224
0.0240592
0.000336755
0.0241983
0.0236886
-0.000475177
0.0238234
-0.000923639
0.0246482
-0.000967644
0.0243622
-0.000648733
0.0245276
-0.000267872
0.0244401
-1.68458e-05
0.0244589
9.98021e-05
0.0244507
0.000105334
0.0244521
5.70749e-05
0.0244522
-1.1749e-05
0.0244526
-8.61133e-05
0.0244527
-0.000161915
0.0244528
-0.0002379
0.0244528
-0.000313737
0.0244528
-0.00038856
0.0244528
-0.00045827
0.0244528
-0.000507994
0.024453
-0.000502918
0.0244531
-0.000388195
0.0244515
-0.000126664
0.0244563
0.000261413
0.0244332
0.000579861
0.0245371
0.000547256
0.0243301
0.000153511
0.0246134
0.023731
-0.000257707
0.023798
-0.000848674
0.0250857
-0.000905491
0.0245851
-0.000601952
0.0247431
-0.000196367
0.024564
8.70741e-05
0.0245611
0.000220858
0.0245246
0.000245174
0.0245156
0.00021422
0.0245124
0.000162442
0.0245116
0.000105079
0.0245115
4.66281e-05
0.0245115
-1.19791e-05
0.0245114
-7.04258e-05
0.0245115
-0.000127754
0.0245115
-0.000179405
0.0245116
-0.000209863
0.0245125
-0.000184091
0.0245163
-4.81172e-05
0.0245253
0.000235443
0.024559
0.000640876
0.0245671
0.000957087
0.0247416
0.000890815
0.0245456
0.000299504
0.0249967
0.0237505
-0.000184697
0.0237427
-0.000848595
0.025334
-0.000949804
0.0246004
-0.000664552
0.024819
-0.000238253
0.024597
7.85397e-05
0.0246075
0.000230996
0.0245772
0.000268348
0.0245704
0.000243925
0.0245676
0.000196282
0.0245669
0.000142449
0.0245668
8.74179e-05
0.0245667
3.22174e-05
0.0245667
-2.27832e-05
0.0245667
-7.64488e-05
0.0245667
-0.000123431
0.0245668
-0.000146868
0.0245672
-0.000108277
0.0245695
4.43525e-05
0.024576
0.000358206
0.0246057
0.000786634
0.0245952
0.00106355
0.0248191
0.00096475
0.0246142
0.000284617
0.0253422
0.0237562
-0.00186253
0.0340669
-0.00615929
0.0437777
-0.0106258
0.0515998
-0.0122826
0.0545041
-0.0126427
0.0556231
-0.0123942
0.0558956
-0.011933
0.0559554
-0.0114225
0.055965
-0.0109042
0.0559661
-0.0103851
0.0559662
-0.00986583
0.0559662
-0.00934658
0.0559662
-0.00882732
0.0559662
-0.00830807
0.0559662
-0.00778881
0.0559662
-0.00726956
0.0559662
-0.00675031
0.0559662
-0.00623105
0.0559662
-0.0057118
0.0559662
-0.00519254
0.0559662
-0.00467329
0.0559662
-0.00415403
0.0559662
-0.00363477
0.0559662
-0.00311545
0.0559662
-0.00259551
0.0559662
-0.00207101
0.0559655
-0.00152616
0.0559593
-0.00100187
0.0559559
-3.35473e-05
0.055629
0.0561085
-0.00327753
0.0399775
-0.00836075
0.0463039
-0.0126335
0.0526644
-0.0141031
0.0544314
-0.0143637
0.0552107
-0.014036
0.055351
-0.0135031
0.0553751
-0.0129235
0.0553784
-0.0123369
0.0553787
-0.0117495
0.0553788
-0.011162
0.0553788
-0.0105746
0.0553788
-0.0099871
0.0553788
-0.00939962
0.0553788
-0.00881214
0.0553788
-0.00822467
0.0553788
-0.00763719
0.0553788
-0.00704972
0.0553788
-0.00646224
0.0553788
-0.00587476
0.0553788
-0.00528729
0.0553788
-0.00469981
0.0553788
-0.00411233
0.0553788
-0.00352477
0.0553787
-0.00293663
0.0553786
-0.00234476
0.0553773
-0.00174252
0.0553711
-0.00114914
0.0553565
-0.000671519
0.0552002
0.055378
-0.00116346
0.045658
-0.00596325
0.0477422
-0.010397
0.0533107
-0.0117707
0.0541865
-0.0120363
0.0547742
-0.011768
0.0548672
-0.0113193
0.0548832
-0.0108328
0.0548859
-0.0103409
0.0548863
-0.00984855
0.0548863
-0.00935613
0.0548863
-0.0088637
0.0548863
-0.00837127
0.0548863
-0.00787884
0.0548863
-0.00738641
0.0548863
-0.00689399
0.0548863
-0.00640156
0.0548863
-0.00590913
0.0548863
-0.0054167
0.0548863
-0.00492428
0.0548863
-0.00443185
0.0548863
-0.00393942
0.0548863
-0.00344699
0.0548863
-0.00295451
0.0548863
-0.00246165
0.0548862
-0.00196666
0.0548856
-0.00146657
0.0548814
-0.000971806
0.0548563
-0.000547077
0.0548131
0.0547719
0.000570137
0.0497239
-0.00398076
0.048395
-0.00857829
0.053623
-0.00989497
0.053848
-0.0101949
0.0543539
-0.009978
0.0544399
-0.00959601
0.0544643
-0.00918282
0.0544684
-0.00876579
0.0544689
-0.00834841
0.0544689
-0.00793099
0.0544689
-0.00751357
0.0544689
-0.00709615
0.0544689
-0.00667873
0.0544689
-0.00626131
0.0544689
-0.00584389
0.0544689
-0.00542647
0.0544689
-0.00500905
0.0544689
-0.00459162
0.0544689
-0.0041742
0.0544689
-0.00375678
0.0544689
-0.00333936
0.0544689
-0.00292194
0.0544689
-0.0025045
0.0544689
-0.0020869
0.0544689
-0.0016684
0.0544686
-0.00124628
0.0544671
-0.000830024
0.0544523
-0.000434113
0.0544456
0.0542864
0.000631565
0.0522743
-0.0037459
0.0484416
-0.00821407
0.0538341
-0.00944374
0.0534572
-0.00973747
0.0539437
-0.00951697
0.0540427
-0.00914912
0.0540668
-0.00875478
0.0540705
-0.00835718
0.0540709
-0.00795924
0.0540709
-0.00756128
0.0540709
-0.00716332
0.0540709
-0.00676536
0.0540709
-0.0063674
0.0540709
-0.00596944
0.0540709
-0.00557147
0.0540709
-0.00517351
0.0540709
-0.00477555
0.0540709
-0.00437759
0.0540709
-0.00397962
0.0540709
-0.00358166
0.0540709
-0.0031837
0.0540709
-0.00278574
0.0540709
-0.00238776
0.0540709
-0.0019897
0.0540709
-0.00159123
0.0540709
-0.00119176
0.0540704
-0.000793493
0.0540688
-0.000401097
0.054063
0.0538667
0.000336853
0.0545775
-0.00371595
0.0484728
-0.00793169
0.0533573
-0.00907574
0.0531041
-0.00932679
0.0535796
-0.0091068
0.0536666
-0.00875323
0.053687
-0.00837577
0.0536899
-0.00799536
0.0536902
-0.00761465
0.0536902
-0.00723392
0.0536902
-0.00685319
0.0536902
-0.00647246
0.0536902
-0.00609172
0.0536902
-0.00571099
0.0536902
-0.00533026
0.0536902
-0.00494953
0.0536902
-0.00456879
0.0536902
-0.00418806
0.0536902
-0.00380733
0.0536902
-0.0034266
0.0536902
-0.00304586
0.0536902
-0.00266513
0.0536902
-0.00228439
0.0536902
-0.00190357
0.0536902
-0.00152247
0.0536902
-0.0011409
0.05369
-0.000759965
0.0536896
-0.000380818
0.0536857
0.0534813
-4.62145e-06
0.0542557
-0.0035983
0.0488596
-0.00749818
0.0530012
-0.00853911
0.0528495
-0.00876483
0.0532436
-0.00855385
0.0533148
-0.00822063
0.0533305
-0.00786598
0.0533324
-0.00750871
0.0533326
-0.00715117
0.0533327
-0.00679362
0.0533327
-0.00643606
0.0533327
-0.0060785
0.0533327
-0.00572094
0.0533327
-0.00536338
0.0533327
-0.00500582
0.0533327
-0.00464826
0.0533327
-0.0042907
0.0533327
-0.00393315
0.0533327
-0.00357559
0.0533327
-0.00321803
0.0533327
-0.00286047
0.0533327
-0.00250291
0.0533327
-0.00214534
0.0533327
-0.00178771
0.0533326
-0.00142982
0.0533326
-0.00107157
0.0533325
-0.000713926
0.0533322
-0.000357217
0.0533287
0.0531228
5.54031e-06
0.0539186
-0.00325878
0.0493694
-0.0068359
0.0528006
-0.00780045
0.0526243
-0.00801337
0.0529366
-0.00781903
0.0529925
-0.00751374
0.053004
-0.00718944
0.0530057
-0.00686287
0.0530058
-0.00653608
0.0530059
-0.00620928
0.0530059
-0.00588248
0.0530059
-0.00555567
0.0530059
-0.00522887
0.0530059
-0.00490206
0.0530059
-0.00457526
0.0530059
-0.00424846
0.0530059
-0.00392165
0.0530059
-0.00359485
0.0530059
-0.00326804
0.0530059
-0.00294124
0.0530059
-0.00261443
0.0530059
-0.00228763
0.0530059
-0.00196081
0.0530059
-0.00163394
0.0530058
-0.00130683
0.0530058
-0.000979418
0.0530057
-0.000652601
0.0530055
-0.000326515
0.053002
0.0527957
0.000163691
0.0540222
-0.00285817
0.0498244
-0.00615267
0.0526025
-0.00704135
0.0524119
-0.00724334
0.0526538
-0.00706641
0.0526981
-0.00678963
0.0527088
-0.0064964
0.0527104
-0.0062013
0.0527105
-0.00590601
0.0527106
-0.00561071
0.0527106
-0.00531541
0.0527106
-0.00502011
0.0527106
-0.00472481
0.0527106
-0.00442951
0.0527106
-0.00413421
0.0527106
-0.00383891
0.0527106
-0.00354361
0.0527106
-0.00324831
0.0527106
-0.00295301
0.0527106
-0.00265771
0.0527106
-0.0023624
0.0527106
-0.0020671
0.0527106
-0.00177179
0.0527106
-0.00147643
0.0527105
-0.00118085
0.0527105
-0.000885005
0.0527104
-0.000589744
0.0527102
-0.000295103
0.0527067
0.0525002
0.000255911
0.0539593
-0.00252239
0.0500568
-0.00553944
0.052391
-0.0063573
0.0521745
-0.00654594
0.0523944
-0.00638357
0.0524329
-0.00613255
0.0524424
-0.00586755
0.0524437
-0.005601
0.0524438
-0.0053343
0.0524438
-0.00506758
0.0524438