/*--------------------------------*- C++ -*----------------------------------*\
| =========                 |                                                 |
| \\      /  F ield         | OpenFOAM: The Open Source CFD Toolbox           |
|  \\    /   O peration     | Version:  2112                                  |
|   \\  /    A nd           | Website:  www.openfoam.com                      |
|    \\/     M anipulation  |                                                 |
\*---------------------------------------------------------------------------*/
FoamFile
{
    version     2.0;
    format      ascii;
    arch        "LSB;label=32;scalar=64";
    class       volScalarField;
    location    "0.0094";
    object      alphat;
}
// * * * * * * * * * * * * * * * * * * * * * * * * * * * * * * * * * * * * * //

dimensions      [1 -1 -1 0 0 0 0];

internalField   nonuniform List<scalar> 
13875
(
0.119861
0.0816026
0.0784532
0.0782833
0.0783329
0.0783775
0.0782802
0.0782116
0.0783054
0.0783609
0.0783016
0.0782953
0.0783778
0.0784115
0.0783942
0.0782977
0.0782562
0.0782942
0.0783031
0.0783542
0.0783205
0.0782659
0.0784835
0.0814459
0.120925
0.103938
0.0576794
0.0570827
0.0571658
0.0566496
0.0566662
0.0570179
0.0570864
0.0571424
0.0571797
0.0571465
0.0571157
0.0566591
0.0566141
0.0566677
0.0570979
0.0571188
0.0571517
0.057074
0.0566797
0.0566739
0.0571393
0.0570622
0.0573735
0.104627
0.110619
0.0553246
0.0558756
0.0547193
0.0545702
0.0544837
0.0542977
0.0542411
0.0541841
0.0541595
0.0541702
0.0543474
0.054254
0.0542778
0.0542405
0.0543493
0.0541082
0.0542534
0.0542803
0.0544507
0.0545303
0.0546017
0.0557832
0.0550939
0.111179
0.115884
0.0546438
0.055381
0.0543148
0.0540334
0.053949
0.0536839
0.0535083
0.053455
0.0534208
0.053343
0.0534685
0.0537087
0.0537413
0.0536927
0.0534829
0.0533639
0.0534637
0.0536337
0.0539056
0.0539994
0.0542017
0.0551965
0.0542887
0.11575
0.121032
0.054633
0.0551187
0.0537387
0.0536685
0.05349
0.0531867
0.0530151
0.0529714
0.0529321
0.0528519
0.0529833
0.0532256
0.053266
0.0532155
0.0529942
0.0528764
0.0529553
0.0531088
0.0534744
0.0536074
0.0536121
0.0550212
0.0543178
0.121341
0.124409
0.0547439
0.0551848
0.053603
0.0532899
0.0531232
0.0527718
0.0525995
0.0525351
0.0525024
0.0524203
0.0525252
0.0527817
0.0528502
0.0527666
0.0525389
0.0524472
0.0525457
0.0527328
0.0530521
0.0532383
0.0535043
0.0548874
0.0543889
0.124088
0.128749
0.056474
0.0557805
0.0534447
0.0532678
0.0528707
0.0524131
0.0522208
0.0521572
0.052121
0.0520447
0.0521403
0.0524108
0.0524771
0.0523985
0.052149
0.0520761
0.0521611
0.0523574
0.0528627
0.0531948
0.0533638
0.0556483
0.0563493
0.129001
0.13571
0.0611974
0.0578306
0.0544034
0.0534047
0.0528625
0.0522406
0.051959
0.051869
0.0518163
0.0517534
0.0518111
0.0521084
0.0521871
0.0520848
0.0518223
0.0518052
0.0519222
0.052218
0.0527844
0.0533239
0.0542774
0.0575179
0.0610282
0.135635
0.151316
0.069248
0.0615405
0.0559063
0.0544022
0.0531388
0.0522334
0.051862
0.0516963
0.0516217
0.0515846
0.0516134
0.0519422
0.0520302
0.0519262
0.0516255
0.0516541
0.0518
0.0521601
0.0530936
0.0542257
0.0556197
0.0610348
0.0684135
0.15423
0.239353
0.0874406
0.0664559
0.0589953
0.0553712
0.0536975
0.05247
0.0520044
0.0517969
0.0516838
0.0516729
0.0516585
0.0520159
0.0521143
0.0520076
0.0517197
0.0517656
0.0519453
0.0524354
0.053602
0.0552554
0.0586518
0.0660111
0.0866929
0.241162
0.365403
0.118408
0.0759908
0.0629276
0.0575416
0.0547493
0.05312
0.0525737
0.0522875
0.0521571
0.0521632
0.0521131
0.0524719
0.0525813
0.0525039
0.0522765
0.0523188
0.0525525
0.053032
0.0546122
0.0573215
0.0616266
0.074829
0.113039
0.365661
0.658226
0.193007
0.104056
0.0743733
0.0612588
0.0573493
0.0551765
0.0541792
0.053658
0.053462
0.0534268
0.0533589
0.0536696
0.0538063
0.0537884
0.0536889
0.0537708
0.0541686
0.0551218
0.0568157
0.0618809
0.0733824
0.100179
0.182935
0.643657
0.581982
0.435129
0.176402
0.0922902
0.0767878
0.0649891
0.0596989
0.0578222
0.0568792
0.0565633
0.0564413
0.0563654
0.0565732
0.0567388
0.0568235
0.056893
0.0571458
0.0579461
0.0598569
0.0653117
0.0763224
0.0896876
0.172112
0.433635
0.581362
0.491458
0.399994
0.347179
0.32803
0.116011
0.0809577
0.0734948
0.0675462
0.0650673
0.0643196
0.0639274
0.063764
0.0638407
0.0640276
0.0643078
0.0647818
0.0657035
0.0683784
0.0749635
0.0830922
0.131176
0.32861
0.337499
0.401416
0.500153
0.408252
0.349405
0.329237
0.333518
0.303584
0.198492
0.126275
0.09464
0.086474
0.0859184
0.0853374
0.0850735
0.0851191
0.0853194
0.0857772
0.0867034
0.0875889
0.0953876
0.134131
0.213199
0.302234
0.330345
0.331376
0.360304
0.421761
0.329672
0.293139
0.281812
0.30072
0.31417
0.322045
0.242742
0.191824
0.171197
0.148184
0.136344
0.132375
0.130951
0.131708
0.13446
0.143334
0.171841
0.195362
0.249658
0.32411
0.307705
0.303891
0.291564
0.298451
0.341928
0.238975
0.227078
0.225328
0.264453
0.31984
0.402768
0.52973
0.564262
0.538515
0.537473
0.557382
0.570446
0.577586
0.574168
0.560932
0.550605
0.540033
0.568859
0.532901
0.396009
0.314051
0.266784
0.230383
0.234526
0.251995
0.140302
0.152235
0.185547
0.227385
0.311557
0.432616
0.565164
0.616638
0.560729
0.512978
0.495302
0.49171
0.494325
0.493247
0.498635
0.530228
0.566595
0.607312
0.566295
0.437942
0.310681
0.229388
0.177341
0.142981
0.131167
0.0684871
0.103011
0.16505
0.250551
0.349296
0.408388
0.475228
0.533828
0.500444
0.45371
0.433771
0.430543
0.431862
0.434873
0.441462
0.462832
0.496919
0.52771
0.488454
0.427979
0.373101
0.265848
0.168341
0.104647
0.0704391
0.0267141
0.0524436
0.113166
0.229255
0.34588
0.362816
0.386034
0.427096
0.424825
0.403099
0.391022
0.385235
0.382458
0.390418
0.399009
0.40652
0.414799
0.414682
0.389451
0.378039
0.363791
0.228609
0.11201
0.0519536
0.0259062
0.0791936
0.0882358
0.114714
0.185963
0.274975
0.286221
0.307762
0.351564
0.369997
0.361732
0.349857
0.338987
0.333393
0.344966
0.357176
0.362183
0.357437
0.337864
0.307309
0.295757
0.283142
0.186036
0.113431
0.0891232
0.0844192
0.124998
0.153904
0.128594
0.156285
0.207118
0.225084
0.2521
0.297892
0.322836
0.320936
0.308882
0.294679
0.28798
0.30054
0.315696
0.320498
0.310701
0.285397
0.247876
0.230248
0.210555
0.15389
0.125604
0.150716
0.125676
0.170935
0.165824
0.133087
0.133988
0.16403
0.181365
0.211562
0.255721
0.281457
0.281526
0.269201
0.254467
0.247289
0.25918
0.274305
0.279458
0.26911
0.245878
0.205854
0.183427
0.165761
0.134414
0.130036
0.161936
0.17219
0.2108
0.197744
0.134603
0.123712
0.138699
0.154919
0.180039
0.219707
0.243121
0.244952
0.232573
0.218322
0.21233
0.222747
0.237441
0.242983
0.231992
0.210794
0.176066
0.155361
0.13937
0.1239
0.133006
0.203344
0.206008
0.231969
0.235346
0.137741
0.119512
0.122857
0.135206
0.156563
0.188822
0.209113
0.210827
0.200582
0.188043
0.18266
0.192234
0.205501
0.210177
0.200055
0.181587
0.153636
0.134287
0.122944
0.121386
0.137486
0.243577
0.227831
0.254555
0.264542
0.138193
0.116064
0.112217
0.121268
0.138422
0.164376
0.180633
0.182542
0.1736
0.162227
0.157681
0.165601
0.17755
0.181692
0.173003
0.157668
0.135933
0.120802
0.1125
0.117304
0.138704
0.270653
0.25088
0.283083
0.278641
0.139245
0.1129
0.105765
0.109867
0.124207
0.143755
0.156446
0.157098
0.150017
0.140588
0.136696
0.143945
0.153953
0.157042
0.150144
0.13805
0.121323
0.10857
0.106491
0.114084
0.141571
0.290587
0.275975
0.312105
0.29582
0.138795
0.108228
0.100576
0.10179
0.112515
0.12696
0.135773
0.136304
0.130319
0.122281
0.119175
0.125111
0.134125
0.13737
0.132123
0.122472
0.110112
0.100906
0.101565
0.109726
0.141916
0.306804
0.304941
0.343129
0.325937
0.143339
0.105896
0.0979619
0.0951288
0.102797
0.11286
0.119584
0.119034
0.114065
0.107312
0.104402
0.109695
0.116729
0.119201
0.115782
0.108959
0.100481
0.0942206
0.0984549
0.106337
0.143801
0.321147
0.335958
0.371443
0.340991
0.14378
0.101864
0.0935544
0.0906218
0.0953138
0.101506
0.105148
0.104409
0.100088
0.0943585
0.0920569
0.0963684
0.102869
0.105461
0.103071
0.0979994
0.0927153
0.0886941
0.0939195
0.102914
0.145626
0.34366
0.363011
0.385422
0.346281
0.148944
0.100845
0.0911393
0.0862206
0.0890412
0.0910817
0.093417
0.0919389
0.0884675
0.0837498
0.0815556
0.0857277
0.0909072
0.0929752
0.0920117
0.0889586
0.0868443
0.0848416
0.090691
0.101057
0.148744
0.34872
0.386976
0.395097
0.345904
0.152956
0.0992358
0.0864035
0.0814153
0.0835296
0.0837431
0.084068
0.0824184
0.079065
0.0746373
0.0727855
0.0760685
0.0810172
0.0832406
0.0829991
0.08129
0.0815337
0.0795106
0.0858794
0.0994428
0.150971
0.347366
0.399404
0.414057
0.340437
0.15854
0.100527
0.0844978
0.0779986
0.0791216
0.0764156
0.0759362
0.0736832
0.0708337
0.0671588
0.065353
0.0686865
0.0727026
0.0746149
0.0753255
0.074912
0.0771048
0.076336
0.0829851
0.099756
0.158189
0.350643
0.411931
0.421333
0.333391
0.163046
0.100901
0.0807331
0.0741314
0.0735422
0.0707693
0.0690043
0.0668163
0.0641031
0.0605509
0.0590972
0.0617015
0.0658073
0.068019
0.0690497
0.0694264
0.0722479
0.0721521
0.0799029
0.0999544
0.165314
0.341801
0.422542
0.429022
0.331759
0.163735
0.10391
0.0806573
0.0719542
0.0698105
0.0655433
0.0634462
0.0606461
0.0582596
0.0553091
0.0537721
0.0564099
0.059638
0.0614533
0.0633572
0.064614
0.0683989
0.0701153
0.078509
0.102096
0.169142
0.342202
0.430983
0.434573
0.323024
0.161845
0.105789
0.0804854
0.0687072
0.0651955
0.0609157
0.0584624
0.0557919
0.0533785
0.0503997
0.0492318
0.0512997
0.0547353
0.056932
0.0587479
0.0598728
0.064372
0.0673856
0.0785721
0.105246
0.167661
0.338197
0.433249
0.440217
0.325708
0.161742
0.110742
0.0823228
0.0673243
0.0624257
0.0565843
0.0541902
0.0511839
0.0490298
0.0466195
0.0453378
0.0475003
0.0502141
0.0520327
0.0545933
0.0560592
0.0616618
0.0658148
0.0801523
0.110095
0.166461
0.334697
0.439575
0.43694
0.324328
0.159637
0.118263
0.0839548
0.0655487
0.0589375
0.0530063
0.0503635
0.0477676
0.0455366
0.0429582
0.0419585
0.0436502
0.0466451
0.0486933
0.0507267
0.0521123
0.0581253
0.0642316
0.081343
0.118033
0.16175
0.331415
0.438725
0.432648
0.323298
0.156076
0.122392
0.0874236
0.066651
0.0572953
0.0498418
0.0471168
0.0441619
0.042256
0.0401673
0.0390564
0.0409293
0.0432457
0.0448649
0.0476418
0.0494839
0.0562168
0.0649787
0.0856054
0.122078
0.157607
0.3329
0.4343
0.422885
0.323433
0.149289
0.122195
0.0915191
0.0665364
0.0546844
0.0470617
0.0441343
0.0416109
0.0396331
0.0373556
0.0365255
0.0379436
0.0406462
0.0424692
0.0446652
0.046592
0.0540766
0.0651416
0.0893118
0.121996
0.150138
0.32861
0.427065
0.412093
0.323507
0.144898
0.122104
0.0997781
0.0693767
0.0550779
0.0453936
0.0419925
0.0388592
0.0371218
0.0353166
0.0343015
0.0358687
0.0379306
0.0393805
0.0424946
0.0450803
0.0538638
0.0674226
0.0970783
0.121459
0.145868
0.332211
0.417887
0.407374
0.32115
0.139473
0.120008
0.107818
0.071116
0.0542616
0.0440347
0.0398719
0.0370455
0.0351405
0.0330639
0.0323435
0.0335396
0.0360318
0.0377345
0.0403766
0.0435553
0.0536847
0.0696363
0.108697
0.120398
0.142778
0.328263
0.404813
0.398448
0.32277
0.137531
0.116305
0.107547
0.0760419
0.0553705
0.044052
0.0388421
0.0349679
0.0331752
0.0315169
0.0306058
0.031978
0.0338871
0.0354179
0.0393777
0.0435889
0.0544449
0.0745458
0.108879
0.117377
0.140308
0.327601
0.398224
0.389383
0.318558
0.137058
0.1112
0.106752
0.0839572
0.0569608
0.0439247
0.0378714
0.0339271
0.0317713
0.029731
0.0290666
0.0301115
0.032515
0.0343274
0.0381069
0.0433651
0.0558012
0.0818279
0.107649
0.112132
0.138698
0.326675
0.389712
0.382871
0.315931
0.135596
0.106479
0.103988
0.093281
0.0611195
0.0445701
0.0380865
0.0327617
0.0303393
0.0285816
0.0277221
0.0289779
0.0308534
0.0328532
0.0384236
0.0444125
0.0602243
0.0939786
0.105213
0.107947
0.140317
0.322922
0.380809
0.375698
0.314082
0.136366
0.102863
0.0991816
0.0928276
0.0676509
0.0459652
0.0378487
0.0327727
0.0296938
0.0273033
0.0266033
0.027625
0.030353
0.0328015
0.0380008
0.0455129
0.0668242
0.0936341
0.100666
0.103898
0.139001
0.319414
0.375984
0.36332
0.307236
0.138216
0.100614
0.0948005
0.0918538
0.078877
0.0500192
0.0389603
0.0324865
0.029127
0.0268571
0.0257459
0.0271388
0.0294877
0.0324393
0.0389967
0.0492415
0.0772844
0.0923247
0.0957418
0.100961
0.139889
0.31703
0.367098
0.3534
0.302879
0.137274
0.0987564
0.0908791
0.0890327
0.0788607
0.0559788
0.0398545
0.0328713
0.0293169
0.0264061
0.0250826
0.0266094
0.0299108
0.0328813
0.0398656
0.0556482
0.0786308
0.0892666
0.0917246
0.0993297
0.140482
0.31093
0.355153
0.326933
0.291701
0.13661
0.0973804
0.0878742
0.0846583
0.0782042
0.0654597
0.0437967
0.0332379
0.0292072
0.0266012
0.0250735
0.0268136
0.0295084
0.0331898
0.0437392
0.0653669
0.0781475
0.0850091
0.0883174
0.0980697
0.139336
0.299076
0.328972
0.295532
0.272408
0.132687
0.0961557
0.085532
0.0807847
0.0766174
0.0678481
0.0490972
0.0355483
0.029929
0.0265034
0.0251295
0.0266785
0.030412
0.0352866
0.0490819
0.068448
0.0766267
0.0802828
0.0853717
0.0963304
0.13431
0.280245
0.29915
0.127379
0.553504
0.747539
0.811789
0.803728
0.789665
0.762448
0.730501
0.685051
0.626759
0.561191
0.496925
0.438484
0.394968
0.363998
0.339054
0.322687
0.311491
0.303248
0.296102
0.28913
0.282223
0.275258
0.262916
0.248295
0.231609
0.210442
0.181017
0.138447
0.098283
0.120866
0.582215
0.771391
0.829868
0.81795
0.804872
0.780535
0.750015
0.704024
0.64477
0.575611
0.504955
0.443281
0.394937
0.358876
0.331388
0.314131
0.302516
0.294251
0.287528
0.283144
0.275435
0.265854
0.254574
0.24114
0.224537
0.203926
0.175148
0.133778
0.095728
0.130996
0.644821
0.803608
0.850067
0.838173
0.824878
0.801845
0.772834
0.729107
0.672251
0.600455
0.525276
0.458883
0.404465
0.363087
0.333378
0.31552
0.304068
0.295571
0.290088
0.280227
0.270566
0.260176
0.248671
0.23503
0.21857
0.197966
0.16991
0.13115
0.0950628
0.140294
0.676588
0.833304
0.87221
0.859351
0.84524
0.825208
0.800443
0.760238
0.706102
0.631951
0.553452
0.478214
0.416139
0.368633
0.337079
0.318723
0.306018
0.295989
0.286511
0.275356
0.265495
0.255198
0.242242
0.228276
0.212323
0.192067
0.164579
0.127118
0.0936329
0.145556
0.703972
0.865749
0.898894
0.884261
0.869377
0.853289
0.833337
0.797397
0.742126
0.669224
0.588146
0.50622
0.435864
0.384841
0.350623
0.326779
0.309043
0.296702
0.283622
0.27216
0.263454
0.250468
0.237583
0.22393
0.208058
0.187652
0.160269
0.123899
0.0924783
0.150129
0.735207
0.901137
0.929911
0.914517
0.898289
0.884603
0.867793
0.836231
0.78325
0.712184
0.6277
0.541825
0.465856
0.406008
0.363006
0.333566
0.311859
0.295536
0.280859
0.269396
0.259105
0.246088
0.233275
0.219521
0.203623
0.183323
0.155997
0.120344
0.0907995
0.155334
0.766529
0.937635
0.962493
0.943804
0.924628
0.910321
0.899459
0.875808
0.828653
0.760443
0.674582
0.586588
0.501733
0.432876
0.380691
0.343948
0.317271
0.296529
0.280681
0.26964
0.25571
0.243279
0.231073
0.21697
0.200597
0.18002
0.152583
0.11793
0.0897663
0.160622
0.798203
0.974899
0.997767
0.965341
0.944174
0.933078
0.927326
0.911751
0.8726
0.811664
0.728294
0.637318
0.546725
0.466947
0.403886
0.357986
0.324502
0.299077
0.281712
0.267793
0.252562
0.240722
0.227927
0.213218
0.196551
0.175828
0.148798
0.115523
0.0884568
0.166064
0.828572
1.01111
1.02555
0.984235
0.960834
0.952801
0.952137
0.944094
0.914447
0.86371
0.786358
0.696204
0.6007
0.511071
0.436324
0.379316
0.336981
0.306091
0.285493
0.266968
0.251737
0.239423
0.225161
0.210767
0.193807
0.172943
0.145955
0.113204
0.0876088
0.170197
0.859271
1.04376
1.05028
1.00263
0.975519
0.969629
0.974038
0.97297
0.953129
0.913929
0.846299
0.760994
0.663615
0.565599
0.478353
0.408006
0.354485
0.316365
0.289654
0.267175
0.251674
0.236873
0.222969
0.207872
0.19062
0.169627
0.142796
0.110959
0.0865352
0.174057
0.886273
1.07143
1.07385
1.02152
0.99001
0.984022
0.992851
0.998126
0.987378
0.958298
0.904404
0.827951
0.733058
0.629966
0.531423
0.446688
0.379794
0.331101
0.296526
0.270723
0.252533
0.235851
0.221547
0.205536
0.188055
0.166881
0.140137
0.109114
0.0857125
0.177505
0.908802
1.09674
1.09659
1.0406
1.00459
0.997554
1.00858
1.01851
1.01181
0.994677
0.954874
0.891662
0.804405
0.701028
0.593424
0.49481
0.41343
0.352435
0.308157
0.276974
0.254402
0.236105
0.219777
0.203061
0.185487
0.164119
0.137498
0.107222
0.084159
0.180402
0.929363
1.12033
1.11812
1.05711
1.01751
1.00811
1.01917
1.02847
1.02733
1.02176
0.995943
0.945948
0.869666
0.771944
0.661774
0.553675
0.458325
0.383312
0.327038
0.287923
0.259126
0.237728
0.219153
0.201926
0.183381
0.161638
0.134951
0.105289
0.0829775
0.182182
0.949809
1.13993
1.13467
1.06943
1.02834
1.01519
1.02299
1.02976
1.0345
1.03764
1.02537
0.989205
0.926408
0.838424
0.733228
0.621969
0.51469
0.423591
0.35257
0.301779
0.266379
0.240077
0.219673
0.201657
0.181301
0.159208
0.132544
0.103263
0.0822387
0.183581
0.967595
1.15406
1.14619
1.07781
1.0352
1.01855
1.02102
1.02608
1.03584
1.04487
1.04265
1.0199
0.972736
0.899544
0.80376
0.696329
0.581208
0.47426
0.385963
0.321458
0.276763
0.24457
0.221717
0.201674
0.180322
0.157371
0.130582
0.101424
0.0815861
0.184074
0.978537
1.16401
1.15241
1.08277
1.03825
1.01867
1.01556
1.01776
1.03193
1.04523
1.05085
1.04064
1.00906
0.951969
0.87073
0.770358
0.651851
0.53191
0.426748
0.347573
0.290533
0.251458
0.224851
0.201868
0.179697
0.155892
0.128723
0.10025
0.080986
0.183648
0.981894
1.16951
1.15241
1.08481
1.03811
1.01456
1.00505
1.00736
1.02474
1.04179
1.05317
1.05344
1.03526
0.995985
0.93164
0.841941
0.725991
0.598965
0.47908
0.382344
0.310403
0.262215
0.229034
0.203449
0.179735
0.154791
0.127023
0.0987262
0.0802755
0.183413
0.978343
1.17147
1.14459
1.08387
1.03415
1.00713
0.992358
0.996347
1.01451
1.03598
1.05127
1.05965
1.05334
1.02951
0.981586
0.906253
0.799191
0.673833
0.542865
0.426727
0.337725
0.27706
0.236069
0.206488
0.18056
0.154149
0.125481
0.097628
0.0797499
0.181219
0.965856
1.16261
1.13394
1.07754
1.02761
0.998211
0.981272
0.985905
1.00335
1.02757
1.04683
1.06097
1.06493
1.05379
1.02019
0.95937
0.866648
0.750903
0.615903
0.483247
0.374877
0.298589
0.247468
0.211553
0.18245
0.154136
0.124964
0.0970294
0.079668
0.179118
0.951069
1.1403
1.1191
1.0641
1.01893
0.988229
0.971533
0.97691
0.994229
1.01946
1.04269
1.06016
1.07196
1.07206
1.05089
1.00281
0.927856
0.824066
0.69333
0.549933
0.421874
0.32644
0.262523
0.218382
0.185473
0.154669
0.124902
0.0966862
0.0796514
0.175114
0.923526
1.10594
1.09428
1.04562
1.00767
0.976939
0.963325
0.970046
0.988193
1.01395
1.04035
1.05986
1.07749
1.08654
1.0751
1.03877
0.981011
0.890487
0.771178
0.625251
0.479529
0.362525
0.281618
0.227863
0.189723
0.156201
0.125195
0.0964029
0.0795984
0.171604
0.891621
1.06099
1.06088
1.02217
0.993541
0.965264
0.957193
0.965544
0.985077
1.01095
1.03831
1.0622
1.08406
1.0982
1.09436
1.06778
1.02475
0.951686
0.84444
0.703343
0.54578
0.407213
0.306135
0.239963
0.194484
0.158393
0.125705
0.0957786
0.0793025
0.165173
0.840223
0.996254
1.00556
0.993013
0.975094
0.955727
0.952577
0.963306
0.984465
1.01052
1.03793
1.06615
1.09146
1.10724
1.10798
1.08974
1.06049
1.0045
0.906666
0.775849
0.615341
0.460474
0.337639
0.25538
0.200757
0.160961
0.126782
0.0956723
0.0793489
0.161708
0.762799
0.903777
0.93701
0.95538
0.953713
0.946687
0.949028
0.962432
0.984398
1.0129
1.04165
1.06992
1.09755
1.1144
1.11696
1.10536
1.08746
1.04458
0.95924
0.842901
0.688386
0.521014
0.377435
0.275846
0.210014
0.164838
0.128082
0.0957462
0.0793362
0.141772
0.57029
0.730789
0.8334
0.906631
0.928309
0.936399
0.945538
0.962335
0.98542
1.01523
1.04619
1.07366
1.09901
1.11924
1.12226
1.11574
1.10152
1.07301
1.00725
0.909022
0.764956
0.590755
0.427811
0.304005
0.223291
0.170851
0.12985
0.0958455
0.0792035
0.0969206
0.136283
0.177721
0.207069
0.228468
0.246715
0.260539
0.269467
0.277037
0.284524
0.29149
0.298529
0.30667
0.317479
0.333129
0.357393
0.389793
0.433849
0.49053
0.555555
0.622952
0.681962
0.727966
0.760249
0.78812
0.801898
0.809569
0.74433
0.548685
0.125959
0.0943611
0.131347
0.171388
0.200623
0.220953
0.238189
0.252079
0.263228
0.269322
0.275788
0.282512
0.289475
0.297609
0.308877
0.325686
0.352289
0.388692
0.436219
0.497164
0.568359
0.641273
0.702347
0.747598
0.777401
0.802267
0.815244
0.826295
0.767669
0.577056
0.119643
0.0936115
0.128491
0.167199
0.19534
0.216157
0.233007
0.246561
0.258342
0.269213
0.275634
0.28215
0.289524
0.298535
0.311215
0.3296
0.357882
0.398226
0.453334
0.518809
0.593164
0.66917
0.731694
0.772636
0.797973
0.820404
0.833932
0.845348
0.798775
0.638643
0.129443
0.0923245
0.125256
0.162415
0.189936
0.21082
0.227414
0.241783
0.253718
0.265578
0.274867
0.281742
0.287886
0.297877
0.311546
0.332322
0.363882
0.409563
0.47242
0.546263
0.623375
0.695916
0.756662
0.804236
0.826634
0.838842
0.853525
0.866582
0.827485
0.669623
0.138639
0.0913692
0.122844
0.159102
0.186078
0.206883
0.22307
0.237643
0.250676
0.262197
0.273447
0.285219
0.294752
0.306547
0.321926
0.34512
0.382314
0.431958
0.499623
0.578201
0.65821
0.730635
0.786372
0.828539
0.854742
0.864971
0.876452
0.892463
0.859294
0.696054
0.143633
0.0899456
0.120054
0.155502
0.182646
0.20284
0.218918
0.233184
0.246916
0.258459
0.270794
0.284222
0.297732
0.312067
0.331514
0.359781
0.401223
0.459395
0.534459
0.616398
0.700843
0.772004
0.820387
0.853409
0.875791
0.895036
0.905482
0.92279
0.894401
0.726506
0.147969
0.0890042
0.117827
0.152574
0.179657
0.200575
0.216924
0.230378
0.243867
0.257003
0.269529
0.284045
0.300504
0.318639
0.342934
0.378009
0.426758
0.493587
0.576121
0.662789
0.746732
0.815601
0.860823
0.880523
0.894404
0.911998
0.936141
0.955446
0.930616
0.757145
0.153243
0.0877342
0.115242
0.14912
0.176044
0.196985
0.213592
0.22758
0.240358
0.254237
0.268021
0.283733
0.303281
0.325908
0.356784
0.40047
0.460011
0.536689
0.62621
0.716788
0.798718
0.858107
0.898461
0.9155
0.916366
0.926242
0.956546
0.990451
0.967831
0.78814
0.158197
0.086915
0.113232
0.146265
0.172886
0.194244
0.211156
0.226028
0.238528
0.252253
0.268159
0.285319
0.309119
0.337727
0.377033
0.431255
0.502628
0.589485
0.684018
0.773941
0.851781
0.903368
0.93172
0.939792
0.938701
0.942161
0.972967
1.01991
1.0042
0.818138
0.163556
0.085872
0.111011
0.142897
0.169426
0.191025
0.20852
0.223423
0.23703
0.251145
0.268639
0.28923
0.317144
0.353979
0.404063
0.471299
0.555579
0.651435
0.748011
0.833142
0.902401
0.943421
0.964172
0.963053
0.95447
0.956425
0.98971
1.04523
1.03814
0.847793
0.167606
0.0849334
0.108468
0.139481
0.167101
0.18835
0.206322
0.221806
0.236986
0.251923
0.271591
0.296845
0.330582
0.377494
0.440842
0.52206
0.618203
0.720261
0.815122
0.892115
0.948783
0.978196
0.99037
0.982302
0.969886
0.971122
1.00648
1.06873
1.06651
0.874025
0.171236
0.0830927
0.106291
0.137135
0.164325
0.185647
0.20374
0.220547
0.237178
0.254756
0.277607
0.308017
0.350247
0.408659
0.486999
0.582487
0.68815
0.791782
0.880746
0.947448
0.98872
1.00615
1.01165
0.998253
0.982729
0.985284
1.02297
1.09093
1.09191
0.89671
0.174757
0.0822216
0.104513
0.134777
0.161972
0.18372
0.2025
0.220521
0.238957
0.25959
0.287856
0.325513
0.379312
0.451614
0.5443
0.650679
0.760214
0.859186
0.938734
0.992516
1.01946
1.02518
1.02609
1.00913
0.994466
0.998843
1.03802
1.11192
1.11537
0.917253
0.177507
0.0807995
0.102232
0.132279
0.159004
0.182072
0.201819
0.22133
0.241411
0.266652
0.301719
0.349923
0.4182
0.506431
0.611574
0.723076
0.828822
0.917674
0.984521
1.02462
1.03845
1.0364
1.0326
1.01449
1.00215
1.00993
1.05185
1.12891
1.13678
0.93745
0.179257
0.0801151
0.100748
0.129837
0.157123
0.18065
0.201959
0.222667
0.245724
0.276614
0.320583
0.382453
0.467965
0.572522
0.686523
0.794898
0.892244
0.967355
1.01704
1.04328
1.04696
1.03874
1.02998
1.01366
1.00614
1.01865
1.06429
1.14167
1.1502
0.955991
0.180669
0.0797405
0.0997975
0.128534
0.156238
0.179474
0.202382
0.225039
0.252062
0.289842
0.345388
0.423532
0.526311
0.644733
0.762008
0.862589
0.9466
1.00559
1.03911
1.05173
1.04724
1.03381
1.01948
1.00703
1.00742
1.02494
1.07256
1.1486
1.16005
0.968424
0.1812
0.0795236
0.0990489
0.127546
0.155516
0.179781
0.203702
0.229197
0.261729
0.308596
0.378346
0.475568
0.594384
0.720482
0.834086
0.923943
0.991664
1.03343
1.05253
1.05369
1.04313
1.02616
1.00871
0.99862
1.00567
1.02726
1.07605
1.14967
1.16524
0.973007
0.180799
0.0793416
0.0982875
0.126699
0.155051
0.180695
0.206401
0.235433
0.275282
0.334516
0.421047
0.537794
0.669252
0.795776
0.899766
0.977022
1.02726
1.05275
1.05949
1.052
1.03741
1.01598
0.997865
0.988813
0.999965
1.0251
1.07601
1.14204
1.16773
0.971134
0.180666
0.0790773
0.0975146
0.126053
0.155154
0.1823
0.210661
0.244936
0.293933
0.36834
0.474474
0.606625
0.744394
0.864382
0.955689
1.01978
1.05442
1.06596
1.06201
1.04817
1.02938
1.00444
0.986627
0.979251
0.992641
1.02032
1.0708
1.13135
1.15986
0.959835
0.178625
0.0784268
0.0962581
0.125162
0.155435
0.184742
0.216382
0.258118
0.31921
0.411849
0.538119
0.681668
0.816616
0.923419
1.00186
1.05354
1.07544
1.07492
1.06239
1.04438
1.02213
0.995385
0.977021
0.970058
0.984261
1.0133
1.05914
1.11653
1.13954
0.946133
0.176695
0.0781852
0.0954187
0.124841
0.156361
0.188029
0.224389
0.275749
0.351721
0.464996
0.609324
0.758032
0.883808
0.975061
1.03971
1.0796
1.09283
1.08295
1.06353
1.04215
1.01613
0.98919
0.97009
0.962215
0.974063
1.00376
1.04173
1.09315
1.10649
0.919956
0.172918
0.0782283
0.0950228
0.124865
0.157699
0.192299
0.234827
0.297116
0.391819
0.52563
0.682561
0.828977
0.942919
1.0192
1.07003
1.10002
1.10588
1.09188
1.0673
1.04189
1.01247
0.985782
0.965351
0.956393
0.963551
0.991193
1.01974
1.06015
1.06285
0.889208
0.169609
0.0785047
0.0954316
0.126102
0.160363
0.198051
0.248057
0.324381
0.4401
0.590543
0.752312
0.890219
0.99306
1.0542
1.09205
1.11385
1.11547
1.10149
1.07298
1.04194
1.01194
0.984594
0.962662
0.951667
0.954372
0.974496
0.991262
1.00797
0.998865
0.839207
0.163406
0.0782361
0.0953221
0.127341
0.164913
0.206307
0.265561
0.359529
0.495819
0.660306
0.81852
0.941028
1.03297
1.08135
1.10721
1.12268
1.12291
1.10964
1.07782
1.04644
1.01514
0.984273
0.961584
0.947995
0.945694
0.953268
0.954437
0.93992
0.906792
0.762597
0.16007
0.078284
0.0956456
0.129342
0.169433
0.217773
0.28901
0.403035
0.559272
0.732442
0.882903
0.989656
1.06561
1.10102
1.11919
1.12985
1.1295
1.11432
1.08247
1.05164
1.01828
0.985082
0.961571
0.944519
0.935276
0.927292
0.906944
0.837541
0.734911
0.571385
0.1407
0.546756
0.553341
0.559465
0.567783
0.57395
0.579875
0.584116
0.586882
0.588025
0.587937
0.587207
0.586245
0.585403
0.584744
0.584294
0.584076
0.584089
0.584358
0.58494
0.585839
0.587056
0.588559
0.590011
0.591404
0.592858
0.594514
0.596321
0.597934
0.599323
0.600457
0.601307
0.601841
0.602027
0.60185
0.60127
0.600298
0.599237
0.597916
0.59604
0.593923
0.591421
0.588473
0.585019
0.581035
0.576472
0.571417
0.565846
0.559687
0.552905
0.54549
0.537503
0.529023
0.52002
0.51051
0.500527
0.49014
0.479431
0.468442
0.457212
0.445779
0.434193
0.4225
0.410776
0.399184
0.388015
0.37707
0.366366
0.355917
0.345681
0.33568
0.325911
0.316401
0.307167
0.298241
0.289639
0.281423
0.273596
0.266214
0.259201
0.252256
0.245148
0.237852
0.230789
0.223938
0.216969
0.209714
0.202204
0.194324
0.186114
0.177566
0.168646
0.159644
0.150539
0.141371
0.132464
0.123924
0.116004
0.108973
0.102614
0.0972219
0.0927352
0.0891184
0.0862448
0.0840928
0.0824156
0.0811553
0.0803032
0.0796539
0.0794802
0.0794844
0.0796236
0.0798683
0.0800842
0.080262
0.0805319
0.0807518
0.0809072
0.0810098
0.0809699
0.0808074
0.0804282
0.0794071
0.0786216
0.0784608
0.0784377
5.30807
5.27835
5.26252
5.2656
5.26885
5.26871
5.26517
5.25673
5.24272
5.22567
5.20882
5.19419
5.18336
5.17658
5.17371
5.17449
5.17846
5.18521
5.1949
5.20821
5.22525
5.24477
5.26412
5.2846
5.30607
5.32734
5.34398
5.35684
5.36586
5.37092
5.37188
5.3687
5.36144
5.35014
5.3349
5.31594
5.2931
5.26605
5.2351
5.2009
5.1636
5.12302
5.0792
5.0326
4.98188
4.92403
4.86421
4.79994
4.7316
4.65913
4.58181
4.50091
4.41625
4.32818
4.23704
4.14313
4.04748
3.95013
3.85119
3.75072
3.64865
3.54465
3.43741
3.32447
3.20271
3.07796
2.95507
2.83507
2.71667
2.60041
2.48628
2.37551
2.2686
2.16552
2.06668
1.9728
1.88445
1.80193
1.72507
1.65395
1.58899
1.5301
1.47649
1.42668
1.38063
1.3372
1.29432
1.25282
1.21106
1.16758
1.12136
1.0713
1.01677
0.95741
0.893784
0.82642
0.756558
0.685817
0.615501
0.547751
0.483933
0.425223
0.372187
0.325071
0.283952
0.248849
0.219183
0.194419
0.174823
0.158903
0.146373
0.136484
0.128549
0.12215
0.117529
0.114519
0.1123
0.110231
0.107866
0.105452
0.10295
0.0999696
0.0978602
0.0967694
0.0961863
8.30289
8.26754
8.27584
8.30599
8.34411
8.37882
8.40583
8.42248
8.4283
8.4259
8.41893
8.41054
8.40299
8.39753
8.39497
8.39567
8.39989
8.40802
8.42045
8.43691
8.4567
8.47572
8.49143
8.5062
8.52041
8.53222
8.53694
8.53536
8.52722
8.51236
8.49072
8.4623
8.42709
8.38534
8.33752
8.28438
8.22598
8.16208
8.09316
8.01955
7.94159
7.85913
7.77215
7.6807
7.58422
7.48187
7.37393
7.26081
7.14286
7.02011
6.88421
6.75143
6.61336
6.47146
6.32643
6.17818
6.02788
5.87538
5.72101
5.56481
5.40674
5.24726
5.08577
4.92188
4.75577
4.58771
4.41602
4.24185
4.06849
3.90236
3.74071
3.58138
3.4246
3.27164
3.12332
2.9817
2.84716
2.71957
2.59878
2.48455
2.37647
2.27447
2.17856
2.08822
2.00329
1.9232
1.84678
1.77446
1.70476
1.63606
1.56905
1.50262
1.43634
1.36995
1.30368
1.23767
1.17181
1.10602
1.0396
0.97295
0.905393
0.837488
0.769466
0.701858
0.636014
0.57263
0.512508
0.456487
0.407013
0.362526
0.323677
0.290113
0.261098
0.236213
0.216263
0.201177
0.189111
0.178655
0.168728
0.159723
0.151557
0.14362
0.138236
0.134587
0.131824
9.84815
9.80923
9.84159
9.905
9.97633
10.0449
10.1031
10.1476
10.1786
10.1981
10.2093
10.2152
10.2186
10.2217
10.2258
10.2318
10.2404
10.2522
10.267
10.284
10.3019
10.3164
10.3245
10.3284
10.3292
10.3262
10.3126
10.2905
10.2598
10.2206
10.173
10.1172
10.0536
9.98253
9.90464
9.82028
9.73026
9.63501
9.53523
9.43058
9.32153
9.20813
9.09033
8.96797
8.84059
8.70803
8.57034
8.42771
8.28034
8.12826
7.97105
7.80971
7.64499
7.47777
7.30877
7.12673
6.95445
6.77992
6.60408
6.42711
6.24816
6.06743
5.88442
5.69948
5.51305
5.32593
5.13865
4.95124
4.76418
4.57208
4.38191
4.19736
4.02279
3.85432
3.69122
3.53176
3.37657
3.2267
3.08258
2.94527
2.8156
2.69321
2.57785
2.46902
2.3662
2.26875
2.17606
2.08824
2.00489
1.92508
1.84896
1.77643
1.70571
1.63786
1.57225
1.50852
1.4461
1.38499
1.32435
1.26446
1.20479
1.14548
1.08633
1.02678
0.967139
0.906321
0.844477
0.78155
0.719524
0.657492
0.596825
0.539455
0.484672
0.433419
0.390275
0.353341
0.321765
0.293694
0.266968
0.243173
0.222992
0.205401
0.192731
0.183234
0.175639
10.7617
10.715
10.7554