/*--------------------------------*- C++ -*----------------------------------*\
| =========                 |                                                 |
| \\      /  F ield         | OpenFOAM: The Open Source CFD Toolbox           |
|  \\    /   O peration     | Version:  2112                                  |
|   \\  /    A nd           | Website:  www.openfoam.com                      |
|    \\/     M anipulation  |                                                 |
\*---------------------------------------------------------------------------*/
FoamFile
{
    version     2.0;
    format      ascii;
    arch        "LSB;label=32;scalar=64";
    class       volScalarField;
    location    "0.0094";
    object      k;
}
// * * * * * * * * * * * * * * * * * * * * * * * * * * * * * * * * * * * * * //

dimensions      [0 2 -2 0 0 0 0];

internalField   nonuniform List<scalar> 
13875
(
812.102
3462.67
3540.48
3539.35
3541.25
3540.14
3540.22
3539.49
3541.11
3542.52
3541.17
3540.58
3540.49
3540.12
3540.46
3541.21
3541.92
3541.13
3540.74
3540.24
3541.14
3539.02
3539.9
3461.02
820.598
881.794
2936.66
3013.11
3000.7
3000.79
2998.82
2996.72
2996.32
2996.18
2996.57
2996.24
2997.93
2996.46
2996.37
2996.2
2998.51
2996.24
2997.08
2996.96
2998.6
3000.43
2999.29
3011.53
2934.66
894.523
993.357
2710.86
2777.49
2755.34
2758.48
2755.96
2746.34
2743.71
2742.11
2741.02
2740.41
2744.02
2751.41
2752.18
2750.89
2744.64
2741.19
2742.7
2745.3
2755.1
2757.66
2753.16
2774.44
2707.44
998.252
1091.06
2533.67
2580.96
2561.44
2566.4
2563.48
2552.71
2549.63
2548.58
2546.95
2545.71
2548.02
2559.27
2560.04
2558.85
2548.66
2547.3
2547.56
2551.15
2562.92
2565.48
2559.39
2579.11
2530.11
1093.74
1172.11
2380.43
2413.08
2392.75
2397.71
2394.73
2383.5
2381.34
2380.51
2378.7
2377.73
2379.14
2390.26
2391.42
2389.9
2379.74
2379.16
2379.04
2382.34
2393.91
2396.78
2391.15
2410.47
2375.77
1177.12
1241.01
2237.09
2270.81
2244.71
2250.92
2246.26
2233.97
2232.41
2231.63
2229.64
2229.08
2229.62
2240.78
2242.32
2240.52
2230.19
2230.46
2229.92
2233.08
2245.7
2249.95
2243.72
2267.92
2247.19
1247.01
1320.99
2121.8
2158.18
2120.1
2122.85
2116.12
2101.82
2100.25
2099.43
2097.14
2097.01
2096.75
2108.05
2109.72
2107.57
2097.23
2098.52
2097.68
2101.54
2115.48
2121.67
2119.75
2154.11
2095.47
1323.22
1409.8
2000.72
2073.42
2019.32
2015.92
2003.04
1985.91
1983.24
1981.79
1979.15
1979.65
1978.39
1989.94
1991.94
1989.48
1978.81
1981.39
1980.54
1985.42
2002.15
2013.94
2017.99
2068.38
1992.68
1420.3
1691.52
2029.48
2021.81
1944.15
1924.46
1905.14
1883.8
1880.27
1878.14
1874.84
1876.15
1873.95
1885.72
1888.05
1885.46
1874.65
1878.06
1877.19
1883.29
1903.82
1922.36
1942.19
2017.89
2033.58
1716.83
2509.39
2285.59
2018.15
1900.97
1858.4
1826.45
1802.54
1797.66
1794.59
1791.06
1792.81
1790.04
1801.48
1804.1
1801.58
1792
1794.93
1795.08
1801.29
1824.63
1855.55
1891.51
2011.46
2266.34
2529.95
3877.43
3026.72
2153.68
1915.55
1814.46
1772.9
1746.11
1736.61
1731.6
1727.94
1729.49
1726.46
1737.05
1739.96
1738.2
1731.11
1733.26
1735.16
1744.96
1768.14
1813.19
1907.11
2129.54
2936.78
3859
5185.65
6451.82
2855.35
1994.78
1853.67
1757.03
1714.03
1698.35
1689.8
1685.72
1686.36
1683.52
1692.37
1695.63
1695.09
1690.87
1693.02
1698.02
1712.32
1757.72
1846.94
1973.82
2789.64
6315.07
5120.38
5056.88
7603.71
7062.59
3348.56
2045.18
1799.79
1743.22
1702.18
1684.55
1676.86
1674.79
1671.73
1678.18
1681.69
1683.14
1683.19
1690.09
1706.67
1746.52
1804.03
2089.04
3232.92
6764.29
7643.29
5009.62
4826.85
6348.26
7179.71
8751.51
5187.05
2328.4
1899.92
1783.91
1747.28
1743.09
1740.99
1738.71
1743.86
1747.21
1749.96
1752.74
1757.97
1792.35
1941.23
2484.03
5619.43
8154.45
6955.12
6327.87
4832.56
4603.92
5508.52
6041.82
6995.55
6866.78
6709.74
3408.82
2378.47
2127.63
2034.54
1995.66
1982.02
1982.59
1987.21
1998.67
2030.37
2120.25
2387.34
3632.78
6901.25
6815.83
6704.73
5964.44
5484.93
4681.09
4293.57
4797.67
5113.12
5881.7
6085.19
6574.22
5564.86
5179.79
4834.81
4177.73
4264.85
4317.22
4360.77
4347
4285.71
4186.09
4753.98
5437.53
5663.03
6634.73
5995.7
5706.17
5070.29
4776.86
4365.04
3727.81
4039.27
4336.18
5067.29
5594.95
6491.13
7311.16
7545.24
6677.51
6242.61
6509.97
6741.48
6872.81
6820.25
6574.8
6547.69
6714.78
7560.69
7347.5
6456.65
5430.06
4898.91
4223.4
3959.19
3719.08
3063.46
3407.28
3950.43
4861.09
5497.66
6088.06
7088.92
7764.03
6509.81
5477.59
5212.99
5235.4
5303.73
5269.84
5270.43
5784.64
6520.18
7430.4
7026.31
6211
5536.73
4804.78
3858.47
3344.71
3026.59
2640.42
3169.44
3856.66
5054.8
5954.04
5767.31
6077.78
6765.1
6122.83
5174.62
4690.23
4546.81
4534.91
4589.31
4785.74
5320.43
5965.93
6452.82
6058.76
5963.67
6257.61
5087.96
3839.11
3152.76
2643.62
2524.53
3406.2
4085.61
5184.55
5756.06
5304.32
5247.75
5718.19
5564.91
4952.64
4420.1
4092.16
3977.76
4163.27
4554.11
5033.76
5363.36
5469.82
5259.46
5491.5
5959.6
5173.53
4093.39
3426.68
2519.7
5076.55
7671.42
6223.17
4830.77
4995.73
4651.28
4573.2
4966.04
5033.33
4627.2
4087.76
3658.27
3503.53
3766.64
4250.1
4680.54
4830.77
4770.23
4601.5
4812.81
5150.95
4958.75
6670.44
8172.49
5943.95
11510.3
23209.5
7837.61
4241.14
4301.85
4090.16
4045.75
4393.34
4540.81
4249.92
3733.85
3265.2
3092.32
3381.71
3890.6
4277.9
4344.32
4239.59
4068.52
4216.41
4413.18
4376.89
8384.31
23300.9
12704.5
13689
19414.8
6900.63
3782.21
3765.43
3636.26
3606.78
3924.78
4091.41
3861.32
3374.66
2913.92
2736.51
3013.19
3509.12
3873.37
3903.1
3796.09
3620.93
3720.94
3840.39
3890.47
6955.4
19012
13564
13010.4
19551.3
5835.34
3436.41
3333
3244.86
3233.03
3514.24
3682.72
3484.58
3025.77
2593.76
2434.92
2693.81
3161.67
3503.3
3510.39
3400.01
3250.36
3315.67
3402.65
3542.82
5980.02
20127.8
12965.1
12673.8
19188.6
5190.61
3166.82
3004.46
2922.13
2927.12
3165.87
3320.68
3143.42
2721.51
2324.4
2181.11
2417.26
2852.3
3167.04
3167.34
3061.03
2937.52
2981.68
3074.4
3269.61
5394.87
20289.3
12750.6
12455.5
19153.1
4727.24
2922.05
2741.84
2651.51
2672.87
2869.45
3001.03
2840.87
2459.45
2096.07
1965.95
2177.39
2573.62
2861.09
2864.8
2768.89
2667.25
2691.96
2803.92
3004.92
4894.83
20054.6
12691.6
12506.6
17743.5
4245.39
2700.23
2528.47
2426.28
2455.26
2612.88
2712.99
2560.02
2220.84
1898.82
1783.8
1977.29
2336.57
2594.89
2606.47
2523.54
2440.48
2458.41
2592.02
2786.03
4463.06
18852.5
12676.3
12342.3
16853.7
3922
2519.78
2353.76
2242.75
2270.25
2394.59
2467.02
2322.91
2021.1
1732.43
1628.11
1801.61
2123.61
2357.45
2379.28
2312.35
2247.26
2265.95
2406.07
2592.1
4135.24
18119.9
12536.1
12018.1
16444
3693.05
2364.89
2204.34
2096.24
2111.13
2204.96
2252.64
2115.17
1848.43
1590.19
1494.21
1649.3
1933.87
2142.67
2177.94
2128.56
2080.28
2104.2
2241.56
2423.55
3824.2
16675.6
12459.2
11769.3
15364.9
3494.69
2233.05
2065.29
1969.04
1975.99
2037.46
2058.01
1925.6
1690.55
1463.59
1378.5
1521.24
1778.48
1965.55
2006.38
1971.88
1941.13
1970.29
2095.94
2286.86
3639.21
16023.6
12164.1
11390.1
14115.5
3336
2129.37
1943.28
1856.21
1857.83
1893.38
1893.49
1766.3
1558.86
1356.12
1277.99
1407.16
1635.55
1802.3
1852.89
1835.12
1821.47
1851.09
1962.22
2171.16
3447.35
14689.8
11845.2
11066.5
13336
3218.92
2052.16
1835.11
1752.95
1752.28
1768.72
1752.2
1631.07
1445.72
1262.35
1190.63
1306.4
1512.41
1664.13
1719.89
1716.2
1714.77
1742.65
1844.9
2082.21
3291.97
13609.9
11500.6
10795.7
12136.6
3089.38
1992.11
1742.4
1662.16
1653.27
1655.69
1622.73
1506.48
1341.98
1178.87
1114.14
1221.48
1407.85
1544.3
1603.89
1612.65
1617.45
1648.04
1747.57
2014.39
3186.11
12777.6
11168.2
10491.7
11224.5
2971.94
1950.21
1667.88
1581.45
1561.29
1556.35
1512.64
1402.41
1254.76
1106.14
1046.76
1143.24
1313.08
1438.05
1499.81
1519.55
1527.6
1563.12
1666.7
1962.16
3089.19
11755.8
10843.1
10206.2
10579
2847.35
1913.95
1618.03
1508.45
1479.17
1465.72
1415.65
1310
1177.38
1042.26
987.342
1075.35
1228.95
1343.36
1407.6
1434.12
1447.67
1491.79
1609.86
1927.38
2960.69
10937.8
10531.4
9923.3
9888.66
2724.06
1881.72
1583.24
1445.29
1404.18
1381.49
1327.38
1227.54
1106.89
983.861
934.388
1015.38
1158.15
1263.43
1326.34
1355.89
1376.58
1427.66
1574.18
1902.68
2845.46
10438.9
10240.6
9672.1
9413.43
2620.9
1875.88
1562.39
1393.12
1338.8
1306.08
1249.03
1155.33
1045.69
933.074
887.097
961.288
1091.44
1188.55
1250.83
1284.79
1311.87
1373.78
1550.58
1896.34
2718.55
9810.17
9945.98
9406.98
9170.73
2525.38
1867.98
1552.24
1356.59
1279.22
1238.21
1179.22
1092.13
991.891
886.944
844.548
912.203
1033.38
1123.12
1182.52
1221.06
1253.49
1336.35
1543.23
1888.88
2595.2
9398.04
9669.48
9117.13
8755.42
2408.46
1827.54
1555.9
1332.18
1228.6
1177.36
1114.99
1032.81
941.037
845.104
806.457
869.578
981.826
1064.59
1122.3
1164.61
1204.05
1310.37
1551.2
1855.94
2478.29
9140.74
9402.91
8850.91
8507.75
2301.04
1777.98
1572.73
1318.67
1189.22
1124.59
1059.21
981.779
897.32
807.548
771.69
829.188
934.443
1011.15
1066.93
1115.02
1166.42
1297.1
1563.88
1797.9
2365.1
8821.01
9123.9
8634.1
8318.51
2237.24
1727.08
1609.48
1316.86
1161.1
1081.48
1010.49
935.642
857.064
773.485
740.211
793.016
890.537
962.884
1018.85
1073.68
1140.98
1294.77
1613.02
1744.41
2270.09
8599.7
8861.28
8433.17
8107.94
2152.14
1659.94
1605.16
1325.8
1140.15
1049.38
968.247
893.843
820.028
741.641
711.193
760.389
853.025
921.102
978.097
1042.28
1121.65
1310.08
1629.62
1693.29
2283.58
8408.75
8642.85
8245.73
7933.32
2098.15
1591.52
1564.15
1360.13
1130.14
1025.47
934.588
857.558
786.9
713.067
684.67
730.077
816.878
882.597
943.267
1019.43
1111.56
1339.32
1590.1
1620.92
2204.5
8211.99
8447.78
8090.62
7753.3
2146.45
1530.97
1508.38
1415.23
1136.19
1005.89
909.834
827.72
757.851
686.753
660.139
702.282
784.698
849.597
916.768
1002.4
1120.4
1407.59
1534.53
1553.51
2179.51
8027.54
8275.82
7941.55
7594.21
2081.87
1469.16
1443.87
1427.61
1169.38
994.952
889.582
803.68
731.877
663.017
638.022
677.853
758.07
823.827
896.64
993.176
1163.25
1433.53
1470.15
1503.4
2220.08
7854.09
8137.09
7795.5
7417.7
2117.65
1425.67
1379.46
1381.64
1245.98
1002.8
875.473
786.67
712.314
643.311
618.563
656.824
736.121
804.816
880.913
999.678
1237.27
1390.43
1403.48
1449.1
2191.76
7689.07
8004.82
7650.84
7254.78
2170.75
1398.15
1322.54
1329.75
1276.49
1052.59
867.896
771.738
697.773
628.42
601.241
640.467
719.679
789.324
871.288
1046.48
1278.15
1337.69
1342.82
1408.81
2182.01
7528.42
7856.42
7435.52
7062.83
2153.15
1367.06
1272.79
1273.49
1239.48
1131.3
882.773
759.991
685.39
617.017
588.464
628.505
706.798
777.738
885.703
1131.67
1247.2
1279.5
1291.17
1388.32
2226.36
7317.88
7631.02
7154.43
6812.03
2151.79
1348.24
1229.52
1216.42
1197.09
1175.52
938.499
757.236
676.026
607.594
579.636
618.495
696.066
773.033
936.492
1186.5
1205.41
1220.57
1244.45
1364.9
2199.1
7056.3
7342.33
6517.25
6353.51
2136.92
1332.45
1192.8
1167.07
1152.16
1147.61
1030.07
785.339
672.001
599.833
571.736
610.115
689.741
795.189
1028.73
1164.31
1160.3
1170.37
1204.52
1342.32
2157.57
6582.41
6694.99
6101.18
9363.73
9030.98
7541.62
6033.69
4989.08
4267.3
3706.62
3185.29
2647.26
2111.4
1644.98
1285.82
1040.42
878.848
772.162
703.956
657.842
623.943
597.483
574.053
552.497
530.53
502.321
470.717
436.747
400.445
361.605
326.657
374.236
6287.57
9924.62
9415.66
7753.23
6144.37
5062.21
4324.42
3763.29
3258.73
2748.61
2233.39
1764.75
1386
1114.13
929.491
805.411
725.854
671.357
631.783
601.603
577.636
552.714
526.345
496.813
464.854
430.469
394.861
357.173
324.259
372.001
6574.59
10550.2
9773.42
7960.2
6278.14
5165.15
4415.27
3849.32
3349.19
2856.19
2347.18
1876.91
1482.68
1185.08
975.377
834.849
744.326
682.236
637.208
604.365
572.852
544.837
516.487
486.513
454.568
421.193
386.741
351.031
321.763
370.863
6924.4
11166.7
10286
8298.58
6512.15
5337.77
4562.17
3986.87
3488.78
3004.84
2500.59
2027.4
1609.91
1280.3
1041.1
881.285
776.112
701.901
647.611
605.742
570.226
539.915
510.357
478.696
446.544
414.092
380.677
346.131
318.646
369.797
7212.49
11804.9
10892.6
8733.6
6822.86
5572.94
4766.19
4174.63
3670.82
3185.22
2684.62
2201.38
1758.97
1394.5
1126.54
940.61
812.078
720.785
656.316
605.591
566.442
535.723
503.185
471.547
440.001
408.188
375.173
341.236
315.423
368.023
7510.24
12509.8
11550.9
9229.61
7189.56
5859.2
5017.68
4405.6
3894.55
3403.14
2902.05
2404.5
1941.04
1544.87
1236.13
1013.61
858.63
748.118
669.103
610.056
566.902
532.093
498.537
466.645
435.296
403.957
371.458
337.993
313.376
366.822
7840.55
13230.6
12251.4
9783.96
7610.61
6198.48
5308.9
4679.6
4163.16
3665.81
3156.76
2645.68
2159.52
1721.28
1368.8
1104.65
917.213
782.984
686.786
618.337
570.283
528.662
494.474
463.062
431.736
400.269
367.818
334.828
312.158
366.016
8166.18
13979.7
13003
10423.4
8092.65
6586.91
5653.57
5001.7
4473.52
3968.3
3452.97
2927.4
2413
1938.32
1537.68
1226.51
998.589
833.314
715.146
633.775
575.242
527.934
492.455
459.914
428.126
396.463
364.27
332.133
311.564
365.806
8490.75
14743.1
13826.1
11135.2
8658.28
7043.52
6060.24
5377.76
4831.51
4317
3796.47
3256.64
2716.4
2204.42
1752.56
1386.76
1107.72
902.298
756.354
656.555
583.44
530.489
491.754
456.88
425.062
393.13
361.23
329.696
310.525
365.757
8782.94
15538.9
14711.3
11937.1
9325.02
7586.7
6537.89
5815.39
5243.54
4715.22
4185.47
3631.74
3071.57
2524.04
2020.67
1592.32
1252.06
996.098
813.96
687.967
598.086
537.268
491.929
455.589
422.184
389.818
358.119
327.38
310.124
366.15
9078.7
16335.3
15653.7
12831.7
10099.5
8229.67
7097.35
6323.66
5716.07
5166.12
4614.28
4049.85
3474.23
2895.68
2341.76
1847.32
1437.05
1119.79
890.511
731.206
621.709
548.061
494.915
455.142
419.395
386.534
355.045
325.19
309.948
366.572
9372.57
17161.2
16660.8
13811.3
10978.2
8980.28
7751.88
6912.47
6253.46
5665.68
5082.41
4504.35
3915.1
3309.18
2711.26
2152.89
1668.65
1281.42
994.691
793.557
657.208
565.191
501.888
455.558
417.065
383.515
352.052
323.153
309.793
366.255
9716.36
18021.5
17713.1
14868.1
11948.1
9838.46
8513.48
7588.6
6850.16
6204.19
5596.19
4999.46
4389.75
3755.51
3119.58
2506.25
1952.43
1488.82
1135.76
881.808
708.619
591.126
512.992
458.196
416.47
381.057
349.295
321.188
309.385
366.126
10034.2
18927.5
18786.7
15986.8
13008.1
10810.3
9380.73
8340.09
7499.94
6790
6155.64
5534.09
4898.67
4235.99
3563.91
2906.06
2291.52
1751.88
1320
999.854
777.229
627.534
528.963
463.989
417.894
379.396
347.088
319.716
309
367.733
10326.3
19833.2
19857.1
17154.5
14168.5
11903.2
10354.3
9168.76
8215.34
7443.76
6764.66
6106.86
5438.1
4748.13
4045.09
3347.61
2680.45
2067.85
1550.16
1150.75
867.601
676.154
552.037
473.81
420.657
379.185
345.702
318.707
308.554
369.172
10572.1
20683.4
20920.9
18361
15432.7
13110.5
11433.2
10091.8
9014.36
8170.69
7430.42
6724.67
6017.38
5299.18
4567.38
3835.33
3115.7
2432.24
1826.67
1339.59
985.333
741.241
585.14
488.586
425.289
380.109
345.09
317.999
309.093
371.101
10834.9
21432
21957.7
19574.6
16783.3
14430
12615.1
11113.8
9917.98
8981.65
8163.24
7396.16
6642.22
5890.05
5131.94
4367.16
3599.64
2848.69
2159.2
1578.13
1139.58
829.664
631.919
509.343
433.386
382.475
345.151
317.614
309.293
373.265
11091.7
22090
22961.6
20784.9
18191.1
15855
13914.2
12259.9
10939.9
9892.84
8975.88
8127.7
7315.47
6522.61
5730.97
4933.35
4124.53
3312.48
2551.54
1877.75
1339.46
949.324
696.614
540.212
446.272
387.083
346.184
317.539
310.418
375.987
11277.1
22575.1
23820.9
21968.9
19620.4
17382.8
15346
13555.8
12111.7
10929.8
9883.05
8930.36
8046.89
7202.37
6367.05
5531.67
4686.04
3821.58
2998.66
2238.36
1593.9
1108.09
785.542
584.595
465.229
394.385
348.343
318.631
312.095
379.655
11389.6
23002.9
24474.1
23067.1
21041.9
19006.9
16928.5
15030.3
13454.8
12117.5
10917.2
9832.36
8857.39
7943.06
7053.57
6169.6
5280.1
4376.58
3488.86
2652.03
1904.68
1311.52
902.331
644.225
491.465
405.192
352.055
320.684
314.047
383.648
11529
23155.3
24827.5
23985.7
22452.2
20724.8
18681.7
16714.7
14997.1
13480.1
12105.6
10872.2
9774.17
8764.83
7801.87
6854.26
5913.33
4968.8
4015.58
3112.75
2272.87
1566.01
1053.49
722.455
527.431
420.295
358.08
323.44
315.836
387.509
11576.5
23236.6
24863.4
24667.9
23844.3
22545.7
20641.4
18634.4
16764.6
15051.5
13486.5
12082.8
10829.3
9694.1
8626.8
7598.99
6590.88
5592.25
4581.69
3611.32
2690.21
1871.73
1243.23
823.253
573.837
438.022
364.937
325.745
316.391
390.338
11678
22900.8
24522.1
25038.5
25185.3
24486
22841
20806.7
18784.6
16870.5
15104.1
13496.4
12049.2
10753.8
9548.26
8411.92
7315.79
6252.25
5182.92
4134.35
3134.26
2215.72
1473.6
950.816
632.644
459.038
371.179
327.051
316.045
393.305
11500.1
22493
24022.6
25341.4
26597.1
26610.4
25286.6
23264.6
21106.7
18983.7
16986.5
15135.2
13454.7
11957.2
10580.9
9297.7
8090.34
6947.88
5810.08
4686.65
3609.06
2605.51
1750.44
1114.16
710.863
489.139
380.456
328.943
315.183
395.795
10936.3
22671.7
23990.1
25906
28199.3
28963.9
28002.2
26044.2
23772.3
21425.7
19156.5
17014.8
15060.6
13309.9
11732.7
10265.7
8923.41
7673.16
6463.96
5277.62
4132.91
3051.75
2083.38
1324.93
817.956
532.984
395.779
333.144
315.4
398.102
371.816
324.997
359.558
398.83
435.216
470.783
501.708
526.654
548.566
570.629
593.745
619.743
653.166
699.56
768.171
875.675
1042.35
1296.76
1666.94
2147.3
2690.38
3229.1
3749.28
4315.93
5065.89
6159.69
7726.57
9255.41
9551.77
6202.24
369.472
322.098
354.797
393.593
429.159
464.474
496.824
525.418
548.299
571.504
597.042
627.188
666.202
720.351
799.512
922.381
1108.79
1385.07
1770.64
2246.39
2770.01
3283.4
3788.29
4356.54
5123.83
6257.51
7926.89
9634.29
10108.7
6390.14
368.292
319.411
349.718
386.156
421.096
455.373
487.309
516.958
545.15
570.188
597.243
630.944
675.901
738.825
829.647
967.543
1174.41
1476.64
1873.09
2345.25
2861.3
3369
3868.52
4436.4
5212.99
6379.51
8124.26
9987.96
10738.5
6677.59
367.503
317.42
345.504
380.591
415.08
448.759
481.596
511.977
542.424
572.533
603.561
640.34
693.131
766.955
873.774
1032.17
1266.01
1595.65
2009.8
2481.5
2980.96
3477.44
3998.37
4586.18
5373.15
6602.13
8455.37
10495.1
11350.3
7028.08
365.959
315.034
341.446
375.739
409.536
442.224
474.927
506.434
537.175
570.304
609.226
655.401
717.854
804.981
930.031
1116.47
1379.21
1736.23
2170.31
2648.13
3142.88
3630.7
4152.03
4775.15
5606.87
6900.76
8887.26
11101.4
11984.4
7312.43
365.24
313.917
338.726
372.799
405.681
437.815
469.977
502.563
534.519
571.002
615.497
672.131
747.306
852.862
1002.85
1218.64
1519.99
1909.67
2361.85
2851.83
3348.79
3830.32
4349.05
4990.97
5890.71
7260.87
9377.7
11759.6
12683.2
7606.4
364.679
312.879
336.292
369.548
402.819
434.855
465.773
498.303
533.313
572.81
623.283
691.022
781.991
909.88
1091
1343.71
1686.79
2114.82
2591.94
3091.52
3594.88
4089.01
4602.55
5251.62
6187.67
7675.38
9931.11
12458.6
13398.8
7938.53
364.671
312.277
334.26
366.841
399.805
431.9
463.155
495.465
533.223
578.238
636.664
718.486
830.173
987.41
1206.88
1503.94
1892.2
2358.86
2867.14
3380.07
3883.61
4391.13
4931.72
5586.88
6547.88
8146.34
10571.8
13217.4
14145.9
8258.18
364.748
311.632
331.937
363.579
396.581
428.861
461.134
494.191
534.376
586.946
655.891
756.186
895.163
1090.99
1358.99
1710.3
2148.75
2651.19
3182.9
3715.31
4231.23
4742.38
5296.08
5991.18
6993.9
8694.47
11289.5
14043.7
14909.8
8583.36
365.224
311.106
329.406
360.432
393.265
426.176
459.205
495.179
539.433
600.863
685.522
808.337
983.3
1227.86
1555.16
1969.39
2460.65
2997.9
3548
4100.62
4629.62
5158.33
5732.15
6458.91
7528.17
9348.88
12097.6
14946.2
15704.2
8874.65
365.368
309.731
326.377
357.843
389.845
423.45
458.367
498.707
549.283
622.529
727.915
880.359
1100.42
1404.47
1799.71
2281.13
2825.26
3395.46
3961.29
4529.94
5080.57
5632.85
6237.5
7015.07
8166.38
10109.9
12992.6
15900.1
16501.8
9168.59
364.46
309.247
324.739
354.983
386.826
421.08
459.264
505.125
566.456
656.187
787.728
979.441
1254.29
1627.69
2096.52
2642.75
3234.74
3836.15
4419.83
4999.17
5577.6
6170.64
6823.7
7662.46
8909.92
10974.2
13967.7
16909.3
17335.5
9468.72
365.111
309.171
323.025
352.445
384.674
420.454
462.588
516.019
591.458
704.646
871.097
1114.6
1455.76
1905.28
2446.62
3050.22
3682.06
4316.16
4922.38
5517.63
6122.08
6767.41
7494.5
8419.04
9766.89
11941.2
15026
17971.2
18205.3
9808.02
365.054
308.586
321.464
349.686
383.461
421.567
468.843
531.928
626.6
771.236
984.58
1293.71
1713.17
2241.58
2848.91
3500.4
4166.56
4832.29
5466.94
6090.04
6725.66
7426.03
8246.19
9278.95
10732.6
13004.6
16150.1
19061.6
19117.2
10125.7
366.368
308.93
320.075
348.459
382.847
424.462
477.73
554.624
673.858
859.097
1132.33
1520.7
2027.47
2633.01
3295.21
3989.52
4689.3
5380.29
6048.65
6708.29
7389.34
8155.32
9079.87
10245.2
11813.8
14169.7
17327.8
20138.2
20030.2
10420.8
368.564
309.939
320.19
348.578
383.31
429.327
491.141
586.202
736.683
973.159
1319.49
1797.05
2394.73
3072.92
3786.87
4519.7
5249.51
5967.58
6673.06
7377.59
8113.91
8950.52
9995.67
11325.3
13029.8
15443.7
18542.3
21203.8
20898.3
10668.9
371.59
311.308
320.74
349.112
385.934
436.736
510.572
629.636
820.779
1120.56
1554.78
2129.38
2815.52
3562.17
4325.44
5091.38
5849.98
6597.7
7346.18
8110.61
8921.54
9847.51
11014.7
12514.1
14360.1
16805.4
19765.7
22247.8
21667.6
10935.3
375.148
312.907
321.552
350.336
390.33
448.18
538.114
688.785
933.327
1311.48
1845.51
2517.17
3283.98
4093.9
4901.58
5698.22
6487.34
7272.31
8075.64
8918.81
9828.12
10864.1
12158.7
13816
15793.6
18225.6
20985
23260.6
22352.3
11201.7
378.515
314.651
322.754
352.62
396.738
464.275
576.524
768.286
1079.86
1552.26
2190.73
2955.12
3791.31
4654.8
5505.24
6337.32
7164.1
8000.08
8871.16
9812.8
10852.7
12024.3
13451.2
15248.9
17332.5
19671.2
22179.8
24142.3
22857.7
11392.7
381.231
315.948
324.059
355.843
405.779
486.394
628.981
873.826
1268.12
1847.42
2588.34
3432.69
4332.77
5242.59
6138.95
7019.05
7895.45
8799.77
9759.02
10828.2
12021.2
13354.3
14917.5
16833
18968.9
21113.7
23293.2
24822.7
23304.4
11516.1
384.242
315.904
325.085
360.185
417.595
516.579
698.443
1009.82
1502.25
2195.27
3032.55
3942.94
4899.24
5857.48
6805.35
7753.26
8704.04
9699.83
10780.7
11993.5
13357.4
14876.2
16590.9
18582.4
20699.9
22540.2
24228.2
25199
23479
11666.9
386.994
315.364
325.532
364.748
432.148
555.866
786.305
1179.89
1781.63
2584.49
3507.53
4482.96
5494.07
6507.31
7521.73
8553.06
9618.01
10735
11977
13353.1
14900.6
16617
18496.1
20533.4
22536.4
23956.1
24930.7
25255
23583.9
11727.3
390.098
316.263
327.717
371.084
450.782
605.826
897.262
1386.21
2097.03
2998.84
3997.97
5047.36
6115.89
7196.52
8298.48
9440.58
10657
11938.4
13367.4
14953
16693.3
18609.5
20651.4
22721.6
24499.2
25333
25345.8
24928.2
23267.7
11847.1
392.167
316.672
330.637
381.327
477.122
672.069
1039.4
1633.84
2454.75
3440.8
4505.84
5628.04
6766.27
7929.89
9147.34
10435.5
11833.4
13327
14988.2
16811.1
18777.6
20904.1
23095.4
25170.7
26627.3
26780.4
25682.8
24424.4
22867.6
11686.5
394.936
317.968
335.424
393.951
513.692
761.141
1220.15
1930.15
2860.73
3923.8
5053.87
6239.96
7457.23
8726.99
10086.5
11558.9
13171.1
14920.7
16857
18960.6
21191.8
23543.1
25861.5
27892
28990.7
28437.1
26285.8
24393.6
23025.4
11135
11047.1
11390.5
11874.1
12535.5
13292.2
14135.4
15051
16013.1
16994.9
17985.5
18976.9
19961.5
20933.6
21884.1
22806.2
23694.2
24542.3
25346.3
26109.1
26839.9
27547
28233.2
28889.8
29516.3
30116.1
30705.4
31290.3
31857
32402.4
32924.1
33419.3
33884.5
34315.3
34708.8
35062.1
35372.7
35658.8
35932.4
36165.3
36354.5
36492.6
36576.3
36597.8
36550.2
36427.3
36241.8
35986.2
35649.2
35223.6
34706.5
34107
33430.2
32671.2
31830.4
30911.7
29925.6
28882.8
27789.5
26651.2
25473.8
24265.3
23034.3
21792.9
20566.2
19383.1
18224.4
17095.9
16000.5
14940
13916.5
12931.8
11988.2
11087.3
10229.8
9416.68
8648.72
7926.98
7251.5
6620.1
6030.64
5483.43
4978.8
4514.5
4086.44
3689.96
3322.86
2983.15
2669.21
2379.19
2112.14
1867.32
1644.26
1442.82
1262.73
1103.66
965.779
848.603
750.55
670.191
605.774
555.162
516.302
487.04
465.458
449.636
438.271
430.432
425.008
422.136
420.713
420.169
420.123
420.435
420.972
421.538
421.625
420.689
418.831
416.321
413.555
410.521
406.406
402.727
400.13
397.691
30513.9
31466.9
32754.4
34418.3
36295.1
38350.4
40539
42809.8
45116
47432.1
49743
52034.9
54294.7
56507.7
58663.1
60752
62766.1
64702.2
66569.3
68387
70169.3
71916.6
73604.8
75244.9
76844.1
78413.1
79930
81391.7
82795.1
84134.8
85403.8
86594.5
87700
88714.1
89631.9
90453.1
91178.4
91791.5
92285.6
92666.2
92927.3
93059.9
93054
92901.1
92602.6
92096.6
91428.6
90571.9
89516.5
88260.6
86802.2
85164.8
83339.1
81332.2
79157
76833
74388
71832.7
69177.8
66435.3
63618.9
60741.2
57805.5
54808.2
51740.7
48667.2
45658.1
42738.8
39907.7
37177.6
34553.2
32040.6
29648.3
27380.8
25242.5
23239.3
21374.6
19647.7
18052
16585
15243.7
14020.4
12901.5
11874
10922.3
10036.5
9205.99
8424.66
7684.92
6981.58
6311.59
5673.37
5067.36
4495.5
3959.66
3461.9
3004.7
2588.6
2214.82
1884.42
1596.93
1350.29
1141.82
968.342
825.935
711.192
619.651
548.122
493.772
452.16
421.109
397.735
380.02
367.985
361.015
358.331
356.779
353.229
347.417
340.963
334.694
328.452
323.627
320.906
319.333
46279.2
47656.2
49527.4
51827.8
54410.6
57194.6
60117.6
63118.1
66145.5
69166.5
72161.5
75115.8
78018.1
80858.4
83630.1
86328.3
88952.1
91507.9
94010.7
96477
98913.1
101305
103630
105902
108135
110334
112469
114537
116529
118438
120251
121959
123552
125024
126371
127592
128683
129636
130447
131112
131624
131972
132141
132122
131893
131425
130717
129755
128530
127040
125224
123175
120876
118329
115554
112568
109429
106139
102707
99144.3
95463.2
91687.1
87818.2
83861.2
79829.2
75735.9
71592
67415.1
63266
59249.8
55351.6
51595.9
47999.4
44566.4
41304.2
38219.7
35317.8
32599.9
30063.9
27706.1
25523.2
23509
21651.1
19937.2
18353.1
16887.7
15531.4
14272.1
13101.9
12012
10996.6
10049.3
9165.12
8340.4
7570.85
6852.88
6183.58
5557.91
4974.39
4430.43
3924.63
3455.44
3022.67
2627.42
2269.13
1948.86
1663.86
1417.69
1209.11
1033.49
889.806
771.581
675.876
600.839
544.643
505.575
476.979
451.623
426.749
404.172
384.918
368.337
356.346
347.813
341.214
63187.6
64960.1
67316.7
70160.1
73317.1
76681.1
80170.5
83720.6
87282.3
90824.2
94326.8
97779.5
101177
104515
107795
111017
114187
117316
120419
123506
126575
129606
132577
135494
138364
141201
143972
146664
149269
151770
154154
156408
158522
160491
162312
163988
165518
166897
168122
169185
170073
170770
171260
171520
171523
171244
170665
169769
168547
166991
165084
162848
160301
157459
154342
150912
147313
143544
139586
135439
131100
126621
121981
117177
112224
107153
101992
96756.4
91465.3
86109.6
80775.4
75560.2
70558.9
65753.2
61164.3
56807
52682.7
48796.8
45150.6
41740.4
38562
35606.7
32863.5
30320.8
27965.9
25786.4
23771.1
21906.4
20180.6
18583.2
17102.6
15730.3
14457.4
13278.5
12185.7
11171.4
10228.5
9349.89
8531.17
7766.53
7051.43
6380.22
5749.22
5157.97
4604.11
4088.11
3606.46
3163.54
2759.63
2393.43
2067.5
1776.28
1520.05
1302.51
1126.26
984.965
868.6
768.502
678.846
602.589
541.876
494.076
458.804
432.131
410.984
81674.3
83862.4
86656.9
89987.9
93644.9
97498.2
101457
105455
109453
113422
117353
121240
125087
128895
132670
136417
140145
143867
147595
151331
155063
158767
162420
166018
169561
173062
176499
179844
183083
186194
189159
191965
194605
197076
199386
201543
203552
205409
207109
208641
209986
211123
212027
212668
213013
213028
212690
211979
210885
209401
207525
205271
202660
199715
196469
192933
189158
185166
180944
176466
171616
166577
161301
155747
149937
143905
137715
131379
124925
118387
111814
105230
98639.7
92167.4
85962.4
80067
74463
69168.2
64172
59477.1
55082.8
50982.3
47166.2
43622.2
40334.9
37287.3
34462.6
31843.9
29416.9
27168.4
25083.4
23150.2
21358.5
19698.5
18157.2
16726.9
15396.9
14160.5
13010.1
11937.2
10935.1
9997.81
9120.53
8300.83
7532.62
6813.59
6139.43
5508.77
4921.09
4375.93
3874.45
3410.25
2976.2
2587.38
2253.9
1967.76
1714.97
1487.06
1275.24
1085.17
925.882
798.621
699.206
622.097
561.462
101170
103754
106955
110715
114798
119059
123405
127777
132146
136494
140817
145118
149404
153680
157954
162234
166529
170853
175211
179597
183994
188380
192723
197002
201212
205345
209413
213363
217175
220821
224276
227531
230590
233471
236191
238762
241191
243476
245609
247575
249353
250914
252224
253246
253941
254270
254208
253742
252866
251576
249876
247776
245296
242466
239321
235892
232212
228277
224052
219493
214546
209234
203556
197488
191032
184116
177032
169718
162183
154459
146675
138842
130999
123186
115444
107824
100449
93506.3
86942.5
80762.3
74974.1
69567.8
64531.4
59844.7
55493.5
51456.8
47711.2
44234.1
41003
37999.6
35205.2
32603
30178.5
27918.3
25810.2
23844
22011
20300.5
18703.1
17212
15820.3
14522.7
13312.2
12181.5
11125.4
10140.4
9222.02
8364.33
7562.92
6815.31
6119.77
5475.74
4865.47
4308.92
3822.62
3402.11
3012.95
2645.89
2300.06
1971.76
1673.17
1415.79
1199.25
1020.94
876.312
120832
123784
127331
131438
135858
140438
145095
149781
154473
159163
163850
168539
173238
177953
182692
187464
192282
197155
202083
207052
212046
217050
221985
226834
231595
236264
240803
245167
249328
253258
256949
260401
263635
266683
269575
272331
274958
277453
279807
282006
284025
285832
287384
288639
289555
290098
290253
290020
289400
288393
287002
285230
283094
280622
277854
274825
271550
267995
264086
259754
254962
249706
243972
237755
231055
223896
216371
208508
200309
191559
182810
173910
164900
155878
146962
138152
129472
120927
112676
104856
97555.8
90736.1
84393.5
78506.9
73049.3
67991.3
63297.7
58930.6
54861.9
51062.4
47506.7
44172.8
41041.2
38098.6
35333.8
32736.7
30297.4
28007.2
25860.1
23849.8
21967.4
20200.4
18546.7
17002.3
15563.2
14222.6
12974.2
11811.6
10728
9718.93
8778.96
7910.14
7098.7
6356.21
5704.4
5141.7
4616.34
4109.84
3637.63
3184.81
2752.84
2360.91
2012.36
1707.07
1442.23
139799
143058
146852
151211
155869
160677
165563
170490
175440
180405
185383
190377
195392
200436
205522
210662
215864
221133
226461
231832
237225
242609
247880
253022
258039
262927
267624
272013
276097
279860
283307
286472
289405
292156
294765
297252
299620
301868
304000
306008
307866
309534
310962
312111
312950
313457
313636
313510
313096
312394
311404
310116
308538
306702
304647
302388
299907
297131
293969
290352
286210
281534
276302
270512
264178
257342
250053
242329
234164
225527
216515
207164
197500
187533
177730
167955
158246
148729
139456
130452
121768
113553
105932
98898.9
92398.3
86389
80808.5
75603.9
70733.9
66159.8
61847.1
57767.8
53903.4
50241.3
46770.3
43480.9
40365.8
37417.6
34632.7
32005.4
29528.4
27193.7
24999.9
22946
21021.9
19226.5
17552.2
15995.2
14545.3
13195.3
11942
10785.7
9721.73
8752.41
7900.78
7150.14
6450.49
5784.63
5177.27