/*--------------------------------*- C++ -*----------------------------------*\
| =========                 |                                                 |
| \\      /  F ield         | OpenFOAM: The Open Source CFD Toolbox           |
|  \\    /   O peration     | Version:  2112                                  |
|   \\  /    A nd           | Website:  www.openfoam.com                      |
|    \\/     M anipulation  |                                                 |
\*---------------------------------------------------------------------------*/
FoamFile
{
    version     2.0;
    format      ascii;
    arch        "LSB;label=32;scalar=64";
    class       volScalarField;
    location    "0.01047";
    object      T;
}
// * * * * * * * * * * * * * * * * * * * * * * * * * * * * * * * * * * * * * //

dimensions      [0 0 0 1 0 0 0];

internalField   nonuniform List<scalar> 
13875
(
1412
1535.57
1482.41
1487.54
1482.15
1483.52
1484.48
1483.69
1484.65
1484.91
1484.42
1484.14
1483.56
1483.91
1483.84
1483.86
1483.44
1484.73
1484.88
1483.11
1481.89
1487.7
1480.55
1533.18
1398.69
1307.02
1356.17
1318.93
1322.07
1316.65
1317.73
1321.92
1322.54
1323.88
1324.34
1323.76
1323.15
1318.07
1317.66
1318.36
1322.76
1322.95
1323.47
1322.31
1317.82
1316.7
1321.89
1319.58
1356.61
1303.68
1307.24
1340.06
1314.29
1311.76
1305.25
1305.41
1305.37
1304.53
1304.81
1305.26
1305.04
1305.96
1303.81
1304.04
1303.9
1305.78
1303.9
1305.94
1306.04
1305.09
1304.86
1311.04
1311.37
1336.19
1296.47
1317.37
1344.8
1314.67
1308.63
1306.01
1305.73
1304.4
1302.76
1303.56
1303.75
1302.85
1303.56
1303.88
1304.08
1304.04
1303.45
1302.42
1303.49
1304.2
1305.49
1305.35
1307.7
1313.94
1343.47
1311.41
1329.53
1342.13
1315.72
1312.42
1304.91
1305.67
1304.81
1303.1
1303.69
1303.91
1302.94
1303.41
1303.8
1304.22
1303.82
1303.29
1302.51
1303.99
1305.2
1304.88
1304.75
1311.76
1311.96
1338.41
1316.12
1332.22
1351.15
1318.82
1309.84
1307.94
1306.4
1304.71
1303.03
1303.85
1303.83
1302.93
1303.71
1304.1
1304.5
1304.3
1303.56
1302.63
1303.54
1304.26
1306.56
1307.27
1308.42
1318.98
1349.16
1326.86
1339
1360.48
1329.03
1317.55
1307.92
1307.7
1305.66
1303.94
1304.46
1304.29
1303.32
1303.69
1304.31
1304.83
1304.23
1303.58
1303.17
1304.57
1306.19
1306.49
1307.79
1317.6
1325.62
1358.19
1321.94
1359.75
1384.7
1344.05
1321.06
1316.34
1309.84
1306.69
1304.8
1305.08
1304.73
1303.95
1304.39
1305.02
1305.52
1305.22
1304.18
1303.76
1304.94
1306.15
1310.01
1315.3
1320.38
1341.48
1381.05
1350.39
1537.28
1508.46
1387.04
1350.56
1321.91
1316.18
1310.06
1307.13
1307.16
1306.16
1305.46
1305.48
1306.25
1306.86
1306.34
1305.67
1305.63
1307.24
1310.51
1314.18
1321.3
1349.2
1382.71
1505.66
1520.81
1835.11
1574.45
1427.01
1358
1338.15
1320.37
1314.62
1310.41
1309.54
1308.83
1308.25
1308.17
1308.92
1309.57
1309.19
1308.62
1308.87
1310.95
1314.1
1320.59
1337.05
1357.18
1424.84
1566.59
1826.38
2507.67
1804.37
1516.86
1406.44
1350.12
1331.74
1325.92
1317.97
1315.92
1314.9
1313.65
1313.48
1314.17
1314.94
1314.76
1314.67
1315.22
1317.73
1326.12
1330.04
1348.67
1419.4
1502.12
1797.77
2429.74
2812.97
2300.98
1736.14
1463.84
1427.17
1359.91
1339.36
1331.29
1328.65
1327.03
1325.37
1325.12
1325.61
1326.4
1326.46
1327.03
1328.3
1331.79
1339.74
1371.47
1405.46
1457.24
1731.32
2306.12
2837.66
2787.22
2654.43
2356.63
2207.01
1524.25
1414.24
1396.15
1372.16
1363.55
1357.56
1354.17
1353.36
1353.4
1354.17
1354.96
1357.77
1363.76
1374.96
1399.54
1421.76
1567.49
2235.01
2245.92
2687.12
2766.7
2723.58
2661.07
2744.42
2787.26
2049.48
1811.61
1519.02
1476.58
1458.74
1447.18
1442.75
1441.6
1441.57
1442.31
1443.58
1448.05
1459.16
1479.12
1541.84
1923.32
2101.38
2803.08
2792.66
2702.9
2701.51
2583.37
2639.69
2685.92
2687.58
2583.41
2363.47
2032.62
1960.42
1863.7
1764.41
1730.6
1719.95
1716.65
1718.16
1724.97
1749.21
1841.5
1962.66
1984.14
2422.55
2637.55
2735.93
2678.22
2652.25
2625.75
2500.99
2537.55
2626.7
2684.04
2653.61
2683.32
2882.18
2943.9
2929.95
3031.54
3113.46
3136.32
3146.67
3140.76
3123.47
3057.24
2905.3
2942.4
2900.31
2717.43
2661.06
2706.6
2624.57
2557.86
2533.15
2314.25
2398.8
2474.61
2529.6
2601.61
2727.09
3036.64
3414.47
3592.93
3683.11
3697.47
3690.55
3688.17
3691.54
3700.53
3701.93
3599.55
3420.14
3053.99
2739.41
2616.02
2564.94
2469.34
2404.4
2328.86
2024.37
2148.48
2301.1
2612.95
2794.01
2827.17
2959.77
3312.85
3530.38
3642.37
3672.87
3672.28
3671.95
3674.24
3675.4
3647.51
3503.46
3292.1
2964.5
2841.93
2808.59
2562.56
2269.59
2139.48
2023.85
1812.62
1878.64
2010.8
2239.23
2711.9
2838.36
2879.72
3107.93
3358.56
3500.38
3545.46
3557.22
3561.44
3560.71
3550.68
3511.6
3361.36
3121.2
2920.44
2926.76
2676.71
2203.58
2007.02
1884.2
1814.21
2458.26
2344.66
2105.76
2194.74
2503.99
2688.43
2700.25
2842.12
3080.51
3278.94
3388.89
3433.4
3442.15
3436.02
3392.52
3278.5
3068.24
2852.28
2730.11
2714.4
2483.56
2222.5
2140.53
2345.66
2451.46
3246.9
3423.57
2746.18
2303.97
2375.18
2532.28
2551
2659.87
2883.97
3110.48
3251.94
3306.2
3317.25
3305.72
3246.28
3091.6
2855.81
2657.11
2559.28
2541.23
2359.13
2325.81
2811.13
3481.85
3259.52
3626.85
3574.01
2818.76
2214.09
2213.05
2369.75
2419.58
2523.93
2735.03
2962.82
3118.84
3182.33
3191.29
3177.47
3102.89
2931.39
2701
2520.8
2417.45
2368.69
2189.75
2248.23
2900.38
3620.75
3674.63
3494.19
3115.67
2490.6
2061.33
2059.95
2236.95
2311.19
2416.08
2606.04
2831.38
2988.41
3053.08
3066.76
3047.99
2974.14
2805.34
2582.15
2415.92
2298.59
2234.63
2036.16
2055.3
2475.76
3125.91
3530.55
3510.71
2958.23
2250.72
1905.36
1973.74
2140.06
2209.38
2317.53
2501.67
2713.67
2867.67
2935.03
2945.85
2929.46
2853.06
2688.27
2476.68
2318.04
2201.19
2129.26
1942.5
1893.64
2255.31
2981.42
3544.35
3447.7
2787.74
2099.23
1822.87
1928.47
2068.91
2120.84
2231.25
2405.57
2612.95
2756.09
2816.73
2831.19
2810.01
2739.04
2584.72
2381.1
2227.11
2117.71
2063.77
1896.24
1809.09
2112.9
2835.87
3480.71
3417.52
2744.79
2041.88
1827.7
1904.5
2002.44
2043.23
2149.21
2320.42
2510.49
2649.96
2711.47
2721.18
2706.02
2636.45
2488.56
2297.17
2148.54
2043.75
1999.95
1877.54
1817.46
2039.21
2763
3452.34
3344.69
2598.6
1964.22
1829.82
1882.11
1957.41
1977.41
2084.72
2245.57
2429.3
2551.97
2604.57
2619.1
2599.12
2538.16
2406.83
2225.75
2079.32
1977.42
1961.04
1859.41
1823.66
1971.48
2617.8
3369.79
3311.64
2561.26
1971.33
1863.73
1872.76
1908.84
1916.89
2023.61
2183.59
2347.84
2461.59
2513.34
2521.57
2508.31
2447.82
2322.81
2155.23
2018.36
1917.83
1912.88
1854.14
1850.91
1975.06
2609.53
3363.53
3306.4
2537.11
1941.66
1854.06
1841.22
1878.28
1868.23
1975.41
2119.83
2276.33
2374.21
2418.32
2432.52
2414.44
2365.28
2261.33
2105.19
1970.47
1871.12
1882.52
1833.19
1852.95
1936.15
2516.14
3283.67
3275.02
2546.76
1975.64
1888.73
1841.74
1851.91
1826.64
1930.15
2072.64
2208.48
2298.09
2341.08
2347.27
2336.84
2286.17
2188.02
2047.24
1925.72
1827.26
1866.64
1829.15
1876.12
1963.12
2526.16
3267.09
3184.17
2451.46
1945.91
1885.28
1803.44
1827.57
1794.46
1904.29
2025.64
2152.96
2224.91
2258.07
2270.12
2253.89
2215.05
2135.2
2005.26
1889.87
1793.91
1835.43
1805.46
1875.29
1939.24
2462.51
3205.17
3156.79
2449.29
1995.47
1914.97
1811.44
1805.03
1770.07
1866.45
1983.74
2090.76
2158.09
2192.79
2196.61
2190.83
2149.94
2076.14
1962.59
1864.86
1768.45
1820.97
1807.48
1891.82
1968.47
2414.83
3135.76
3096.08
2397.5
1991.14
1894.66
1782.89
1773.78
1744.26
1851.07
1945.72
2046.27
2097.79
2121.02
2131.34
2117.78
2090
2033.42
1928.01
1836.72
1742.83
1782.5
1789.99
1886.62
1962.82
2377.75
3116.65
3054.53
2374.03
2027.57
1914.51
1804.17
1759.43
1732.97
1826.13
1911.38
1993.63
2040.27
2067.99
2068.97
2066.68
2033.17
1980.04
1890.2
1819.4
1724.04
1772.19
1796.74
1899.72
2024.19
2389.51
3084.4
3023.91
2346.23
2020
1911.5
1787.73
1730.51
1703.29
1811.68
1876.98
1953.62
1989.24
2005.25
2014.49
2003.07
1984.69
1947.87
1862.39
1802.38
1698.32
1739
1796.87
1903.88
2006.65
2334.83
3028.49
2996.19
2335.06
2021.81
1923.79
1801.41
1731.44
1697.46
1789.77
1849.16
1908.38
1940.07
1962.98
1961.78
1961.94
1933.42
1897.44
1831.91
1789.81
1683.75
1732.58
1807.49
1920.63
2025.11
2335.42
2996.15
2945.95
2288.97
2009.39
1938.05
1791.48
1715.94
1672.4
1777.42
1820
1877.72
1898.61
1908.38
1916.17
1905.98
1894.02
1873.08
1802.58
1770.89
1662.78
1720.76
1792.5
1937.14
2002.92
2297.6
2933.75
2930.13
2297.71
2013.75
1980.34
1815.75
1732.2
1675.24
1759.52
1792.62
1835.07
1855.23
1874.66
1871.62
1874.32
1850.08
1827.13
1779.15
1763.14
1660.36
1724.62
1816.13
1974.06
2002.64
2273.03
2908.48
2899.36
2275
1993.37
1990.44
1809.52
1713.2
1653.95
1748.33
1764.93
1811.09
1822.24
1826.82
1833.33
1826.09
1818.75
1807.88
1746.24
1741.61
1650.52
1716.71
1810.49
1995.33
1975.18
2267.98
2923.2
2854.03
2269.21
1977.32
1991.14
1842.31
1746.69
1676.58
1741.51
1744.57
1772.19
1783.8
1800.48
1796.22
1800.65
1779.1
1765.63
1728.37
1738.11
1656.57
1734.15
1842.05
1989.89
1970.36
2299.75
2914.89
2827.94
2263.52
1948.66
1985.24
1887.29
1735.58
1665.28
1728.15
1716.69
1752.84
1757.04
1758.95
1763.67
1758.56
1755.46
1753.35
1696.28
1720.55
1669.67
1727.36
1872.47
1987.55
1943.89
2256.67
2870.91
2792.97
2256.5
1936.79
1971.39
1922.77
1765.1
1701.96
1732.89
1705.9
1719.47
1723.5
1737.93
1732.33
1738.03
1718.83
1716.97
1689.62
1725.57
1689.5
1763.94
1941.87
1980.13
1936.73
2252.44
2810.77
2764.35
2233.19
1915.44
1959.04
1930.29
1785.5
1708.56
1731.45
1683.68
1707.13
1702.64
1701.58
1704.51
1700.94
1701.11
1709.6
1659.44
1715.81
1702.28
1773.23
1935.71
1965.32
1918.89
2227.19
2776.61
2732.74
2229.34
1914.54
1929.29
1917.81
1839.76
1742.76
1748.16
1687.65
1680.1
1674.03
1685.08
1678.01
1685.2
1668.09
1681.91
1672.1
1733.91
1729
1829.32
1931.73
1945.69
1912.18
2209.75
2729.31
2712.44
2214.7
1901.78
1901.79
1901.78
1899.96
1753.05
1746.86
1676.57
1680.46
1660.62
1653.32
1654.51
1653.34
1658.76
1683.38
1652.72
1729.84
1755.38
1900.96
1919.01
1916.61
1899.22
2213.8
2697.66
2673.81
2195.66
1899.55
1885.81
1878.33
1892.61
1826.49
1773.67
1701.56
1666.02
1639.99
1643.36
1633.81
1643.69
1629.9
1663.73
1682.04
1757.11
1808.7
1896.83
1898.74
1896.93
1912.28
2213.04
2671.51
2656.14
2195.26
1894.97
1862.62
1850.22
1873.66
1904.28
1789.5
1687.66
1680.58
1643.77
1621.16
1617.81
1620.48
1642.58
1682.47
1662.12
1772.03
1883.34
1880.3
1870.88
1876.75
1903.64
2196.32
2650.86
2606.69
2173.76
1888.51
1849.97
1828.72
1857.79
1891.51
1849.41
1730.93
1673.24
1633.06
1628.78
1603.69
1627.51
1619.14
1673.18
1713.87
1826.13
1898.06
1867.85
1846.15
1867.04
1902.21
2180.39
2607.89
2564.51
2155.98
1877.44
1845.75
1808.98
1827.85
1877.6
1940.13
1733.52
1696.2
1647.22
1615.12
1604.21
1612.68
1646.27
1697.43
1708.09
1917.05
1880.94
1830.66
1823.36
1852.59
1879.82
2161.15
2573.82
2398.73
2105.88
1853.99
1824.84
1787.15
1795.65
1853.85
1917.62
1820.84
1709.56
1641.87
1631.82
1606.7
1630.36
1623.63
1706.29
1797.41
1926.5
1861.44
1806.21
1804.56
1839.52
1859.07
2106.76
2410.6
1090.14
1026.95
957.728
874.998
792.624
717.563
656.119
605.55
567.307
538.643
517.379
503.06
492.392
484.905
477.994
471.48
464.421
457.769
451.109
444.758
438.861
432.853
427.891
423.56
419.417
415.16
410.877
406.034
400.86
396.529
1090.44
1027
958.357
879.603
802.572
732.626
673.925
622.991
583.608
552.038
527.266
509.979
497.062
488.18
480.599
473.864
467.074
460.412
453.367
447.092
441.247
435.461
430.455
426.251
422.4
418.5
414.589
410.209
405.838
402.679
1090.37
1030.38
965.174
889.072
814.568
745.807
685.676
636.016
596.581
562.812
535.914
516.267
501.133
490.391
481.892
474.71
467.999
461.242
454.025
447.742
441.992
436.438
431.443
427.292
423.548
419.791
416.041
411.945
407.948
405.274
1099.43
1039.78
977.761
904.993
834.537
767.715
708.223
658.784
617.594
581.02
551.182
528.168
509.813
496.398
485.985
477.693
470.725
463.652
456.236
449.727
443.925
438.67
433.908
429.788
426.109
422.672
419.219
415.645
412.156
409.865
1107.02
1051.45
992.805
924.464
857.541
791.722
733.099
683.702
641.318
602.173
569.271
542.736
520.856
504.063
490.952
480.72
472.88
465.267
457.633
450.997
445.388
440.083
435.503
431.291
427.628
424.914
421.158
417.999
414.817
412.593
1115.87
1062.92
1008.19
944.728
880.327
816.917
760.565
711.566
667.888
626.636
591.337
561.401
535.867
515.27
498.753
485.882
475.994
467.29
460.019
454.042
448.19
442.822
438.314
434.042
430.449
427.513
424.226
421.709
419.201
417.456
1123.14
1075.4
1024.73
966.032
904.453
844.046
790.463
741.809
696.983
653.73
616.161
582.782
553.635
529.122
508.812
492.606
479.841
469.949
462.907
456.826
450.948
445.559
440.885
436.454
432.664
429.175
426.562
424.394
421.605
419.772
1132.54
1088.3
1042.14
987.892
929.873
873.109
822.058
774.303
728.437
683.169
643.584
606.956
574.301
545.984
521.925
502.2
486.7
474.984
466.79
460.18
454.134
448.834
444.136
439.705
435.625
431.911
429.573
427.448
424.898
423.051
1140.56
1102
1060.17
1010.52
956.951
903.831
855.138
808.282
762.276
714.981
673.48
634.226
598.514
566.675
538.969
515.447
496.323
481.697
471.052
463.267
457.104
451.647
446.721
442.37
437.925
434.103
431.87
429.535
427.268
425.865
1149.5
1115.93
1078.49
1034.13
985.388
935.809
889.374
843.626
797.967
749.325
705.795
664.347
626.007
590.889
559.643
532.22
509.179
490.734
476.908
467.039
460.223
454.61
449.494
445.034
440.594
436.893
434.783
432.563
430.951
429.517
1156.13
1129.55
1097.09
1058.33
1014.57
968.549
924.421
880.001
834.919
785.835
740.747
696.864
656.547
618.55
583.816
552.56
525.297
502.716
485.038
471.977
463.52
457.255
451.912
447.086
442.774
439.104
436.651
434.531
432.67
431.496
1164.47
1142.69
1115.86
1082.61
1043.97
1001.54
959.894
917.144
873.248
824.055
777.465
731.538
689.387
648.896
611.077
576.421
545.102
518.302
496.52
479.628
467.942
460.351
455
450.052
445.591
441.743
439.21
437.029
434.972
434.167
1171.84
1155.49
1134.37
1106.59
1073.21
1034.61
995.593
954.728
912.422
863.409
815.244
768.149
724.458
682.028
641.424
603.392
568.208
537.367
511.277
490.152
474.293
463.913
457.544
452.742
448.13
444.377
441.382
438.687
436.527
435.894
1178.05
1167.43
1152.42
1130
1101.73
1067.53
1031.23
992.45
951.271
902.47
853.863
806.867
761.582
717.43
674.418
633.351
594.635
559.913
529.468
503.824
483.897
469.663
460.983
455.498
450.655
446.699
443.372
440.519
438.579
438.055
1183.94
1178.74
1169.51
1152.92
1129.52
1099.72
1066.49
1030.03
989.45
940.88
893.377
846.895
800.457
754.389
709.704
665.922
623.919
585.539
550.808
520.528
495.941
477.265
465.28
457.999
452.747
448.508
444.676
441.666
439.712
438.953
1189.03
1189.25
1185.62
1174.67
1156.65
1130.94
1101.16
1067.06
1026.98
979.671
933.077
887.355
840.8
793.094
746.861
700.875
656.007
614.291
575.515
540.615
510.782
487.325
470.921
461.02
455.053
450.539
446.271
443.238
441.496
440.749
1193.7
1199.34
1200.76
1195.18
1182.67
1160.91
1134.61
1102.85
1063.51
1018.25
972.953
927.721
881.575
833.327
785.252
737.563
690.299
645.548
602.973
563.681
529.001
500.359
478.858
464.882
457.191
452.357
447.735
444.274
442.505
442.042
1196.74
1208.55
1214.42
1214.42
1207.12
1189.55
1166.54
1137.18
1099.04
1056.17
1012.58
968.087
922.473
874.418
824.916
775.691
726.608
679.169
633.093
589.655
550.336
516.637
489.888
471.1
460.114
454.419
449.535
445.888
443.949
443.549
1199.04
1216.82
1227.95
1232.28
1229.82
1216.71
1196.79
1169.84
1133.75
1093.39
1051.52
1008.19
962.378
915.611
866.006
814.845
764.557
714.804
665.568
618.159
574.199
535.393
503.255
478.912
463.745
456.243
451.083
446.962
444.821
444.445
1200.98
1224.01
1240.17
1248.67
1250.75
1242.06
1225.15
1200.62
1167.43
1129.52
1089.43
1047.32
1002.6
956.155
907.73
855.153
803.846
752.261
700.319
649.203
600.746
556.789
518.868
488.828
469.097
458.495
452.715
448.218
445.895
445.598
1201.56
1230.34
1251.34
1264.71
1269.97
1265.49
1251.62
1229.68
1199.58
1164.34
1126.22
1085.49
1041.8
996.207
949.031
896.775
844.042
791.077
736.939
682.491
629.736
580.562
536.723
501.235
476.019
461.316
453.999
449.295
447.022
446.746
1200.8
1236.05
1261.6
1279.54
1287.69
1286.92
1276.1
1256.9
1230.1
1197.64
1161.53
1122.27
1080.1
1036.07
988.895
938.535
885.001
830.591
774.799
717.574
661.029
607.195
558.209
517.136
485.551
465.539
455.49
450.505
448.009
447.441
1201.46
1241.62
1271.85
1293.42
1303.93
1306.34
1298.6
1282.24
1258.83
1229.25
1195.3
1157.69
1117.01
1074.41
1028.93
978.853
926.216
870.242
813.075
753.835
694.383
636.963
583.706
536.922
498.601
471.791
457.6
451.277
448.41
447.771
1182.12
1249.83
1284.05
1307.04
1319.72
1324.02
1319.19
1305.73
1285.7
1259.07
1227.38
1191.74
1152.49
1111.21
1067.18
1017.83
966.151
910.169
851.286
790.941
729.408
669.025
611.696
559.758
515.457
481.466
461.779
452.716
449.057
448.258
1207.13
1282.33
1307.77
1322.17
1334.71
1340.41
1337.91
1327.53
1310.64
1286.91
1257.62
1224.14
1186.4
1146.36
1103.7
1055.84
1004.46
949.324
889.271
828.333
765.307
702.33
641.135
584.085
533.794
493.672
467.64
455.075
450.157
449.063
394.945
399.33
404.122
408.602
412.889
417.211
421.529
425.869
431.227
436.849
442.944
449.312
455.932
462.502
469.232
475.343
481.961
489.316
499.58
513.451
534.25
563.421
602.027
652.914
715.793
791.927
875.433
958.953
1028.93
1093.58
399.981
403.789
408.227
412.424
416.242
420.041
424.093
428.679
433.966
439.542
445.36
452.046
459.135
465.639
472.142
478.586
485.579
494.233
506.767
523.641
547.81
579.861
619.884
670.445
730.259
801.171
879.256
959.099
1028.57
1093.37
402.138
405.504
409.797
413.958
417.619
421.217
425.273
429.801
434.871
440.484
446.314
453.214
460.289
466.831
473.252
480.134
488.203
498.626
513.407
532.633
558.888
592.849
632.568
682.894
743.839
812.712
888.034
965.142
1031.18
1093.18
406.751
409.527
413.417
417.313
420.7
424.105
427.888
432.201
437.383
442.678
448.712
454.978
462.911
470.054
476.612
484.793
494.809
507.901
525.891
548.424
577.433
614.099
655.879
705.552
765.539
832.443
903.508
977.416
1040.44
1102.29
409.765
412.198
415.739
419.333
422.364
425.803
429.658
434.117
439.321
444.205
449.948
456.509
464.083
471.922
479.699
489.942
502.844
519.358
540.97
567.182
599.234
638.19
681.219
730.711
789.191
855.673
922.94
992.214
1051.96
1110.11
414.332
417.03
420.129
423.048
425.246
428.47
432.353
436.978
441.725
447.06
452.604
458.903
465.458
474.069
484.125
497.126
513.627
534.047
559.411
589.081
623.755
664.838
709.021
758.005
814.168
878.659
943.193
1007.75
1063.28
1119.18
418.115
420.456
423.108
425.877
427.705
430.63
434.562
439.08
443.813
449.494
455.555
461.687
468.606
478.19
490.747
506.818
527.01
551.258
580.262
613.329
650.453
693.49
738.84
787.281
841.015
902.586
964.487
1024.11
1075.7
1126.7
422.388
423.916
426.296
428.884
431.188
434.156
437.675
442.303
447.122
452.772
458.942
465.69
473.69
485.133
500.322
519.766
543.589
571.508
603.925
640.162
679.387
724.32
770.9
818.559
869.791
927.427
986.435
1041.56
1088.6
1136.25
424.544
426.215
428.576
431.236
434.235
437.93
440.514
444.939
450.059
455.753
461.879
469.719
480.192
494.453
513.24
536.397
563.784
595.059
630.405
669.248
710.416
757.24
804.124
851.181
900.194
953.782
1008.82
1059.55
1102.24
1144.54
427.929
429.155
431.558
434.265
437.388
440.66
444.056
448.091
453.108
458.827
465.588
475.025
488.504
506.491
529.05
555.972
586.835
621.404
659.442
700.466
743.811
792.204
838.921
885.023
931.867
981.504
1032.13
1077.82
1116.22
1153.79
430.519
431.068
433.689
436.565
439.271
442.841
446.763
450.91
455.699
461.553
469.977
482.087
499.044
521.023
547.609
578.41
612.643
650.171
690.363
733.826
779.004
828.34
874.587
919.518
964.151
1009.87
1055.93
1096.22
1129.82
1160.51
434.319
434.087
436.291
438.736
441.572
445.262
449.48
453.939
458.851
465.691
476.148
491.829
512.664
538.648
569.199
603.338
640.772
681.002
723.067
768.844
815.72
865.664
911.094
954.404
996.636
1038.47
1079.78
1114.68
1142.86
1168.68
435.535
436.359
438.007
440.311
443.396
447.18
451.918
456.84
462.137
470.736
484.683
504.461
529.382
559.291
593.711
631.168
671.581
713.982
757.703
805.041
853.746
903.888
948.322
989.5
1029.1
1067.11
1103.48
1132.93
1155.67
1176.39
437.56
438.353
440.152
442.535
445.755
449.789
454.589
459.557
466.451
478.317
496.484
520.3
549.363
583.077
621.127
661.756
704.776
749.145
794.708
842.432
892.004
941.785
985.598
1024.48
1061.25
1095.54
1126.74
1150.76
1167.6
1182.65
438.844
439.544
441.323
443.966
447.535
451.789
456.582
462.499
472.292
488.459
511.176
539.348
572.552
609.894
651.357
695.004
739.885
786.342
833.539
881.038
929.695
979.407
1022.58
1059.28
1093.12
1123.63
1149.41
1167.9
1178.93
1188.88
440.708
441.341
442.889
445.601
449.524
453.853
458.963
467.157
480.979
501.88
529.016
561.847
599.174
639.974
684.451
730.678
777.082
825.554
873.226
920.095
967.758
1016.33
1059.3
1093.88
1124.3
1150.99
1171.17
1183.96
1189.82
1193.24
441.926
442.409
444.001
446.983
451.238
455.685
461.901
473.459
492.129
517.917
550.214
587.575
628.877
672.944
720.002
768.232
816.473
865.783
913.221
959.586
1006.18
1052.65
1095.15
1127.56
1154.5
1177.23
1191.59
1199.01
1199.52
1198.22
443.056
443.382
445.14
448.643
453.132
457.972
466.514
482.576
506.292
537.403
574.816
616.66
661.679
708.678
757.783
807.53
857.576
906.461
953.358
999.248
1044.22
1088.46
1129.57
1159.9
1183.43
1201.77
1210.83
1212.65
1208.98
1201.54
443.675
443.957
445.977
449.93
454.686
460.789
472.748
494.094
523.488
560.087
602.553
648.785
697.223
746.761
797.325
848.56
899.523
946.85
993.842
1038.43
1081.76
1123.85
1162.31
1190.5
1210.71
1224.75
1228.74
1226.04
1217.38
1204.13
444.672
444.878
447.022
451.33
456.568
465.03
481.693
508.638
544.005
586.214
633.598
683.907
735.265
786.784
838.254
891.124
941.225
987.669
1033.58
1076.9
1118.38
1157.97
1193.49
1219.17
1236.27
1246.05
1245.12
1238.36
1224.7
1206.14
445.975
445.945
448.115
452.612
458.907
470.936
493.393
526.214
567.878
615.643
667.615
721.521
775.206
828.125
880.627
933.899
982.156
1027.85
1072.46
1114.33
1153.83
1190.71
1222.99
1245.88
1259.96
1265.68
1261.49
1249.8
1231.15
1206.77
446.51
446.908
449.427
454.039
462.406
479.453
508.536
547.557
595.186
648.056
704.029
760.892
816.279
870.252
923.841
975.348
1023.25
1067.2
1110.1
1150.42
1187.85
1221.98
1250.83
1270.69
1281.78
1283.79
1276.61
1260.39
1237.03
1205.92
446.812
447.353
450.207
455.858
467.729
491.283
527.744
573.211
625.864
682.868
741.981
801.03
857.561
912.932
966.07
1016.51
1062.78
1105.16
1146.42
1185.07
1220.3
1251.53
1276.86
1293.64
1301.81
1300.53
1290.98
1271.05
1242.84
1206.32
447.534
448.214
451.625
459.445
476.6
507.977
550.984
602.218
659.313
719.565
780.934
841.272
898.839
954.858
1006.55
1056.24
1100.74
1141.58
1181.28
1218.19
1251.09
1279.28
1301.06
1314.83
1320.23
1317.13
1305.29
1283.57
1251.24
1187.06
448.366
449.385
453.85
464.931
488.471
526.77
576.034
632.873
694.156
757.202
820.204
881.095
939.581
994.829
1045.87
1093.99
1136.84
1176.35
1214.59
1249.49
1280.07
1305.22
1323.53
1334.37
1337.36
1332.92
1321.08
1307.05
1283.39
1210.84
1393.62
1448.89
1469.79
1507.28
1528.77
1559.73
1580.77
1605.79
1626.17
1646.84
1665.58
1683.47
1700.34
1716.31
1731.49
1745.88
1759.52
1772.45
1784.78
1796.53
1807.24
1817.6
1827.61
1836.93
1845.76
1853.94
1861.73
1869.12
1876.09
1882.66
1888.85
1894.64
1900.03
1905.05
1909.67
1913.89
1917.69
1921.07
1924.02
1926.49
1928.5
1930.02
1930.97
1931.42
1931.32
1930.41
1929.02
1926.93
1923.61
1919.63
1914.84
1909.16
1902.58
1894.88
1886.36
1876.87
1866.44
1855.07
1842.74
1829.47
1815.23
1800.02
1783.86
1766.78
1748.81
1729.97
1710.27
1689.77
1668.48
1646.42
1623.7
1600.29
1576.15
1551.53
1526.22
1500.38
1474.18
1447.05
1419.68
1392.27
1363.7
1334.83
1306.51
1276.28
1245.66
1215.92
1184.19
1150.1
1117.18
1084.4
1048.97
1012.6
975.514
937.188
898.171
858.541
819.344
780.809
743.457
708.253
675.416
645.357
617.806
593.463
571.557
552.321
535.785
521.141
508.271
497.5
488.341
480.243
473.359
467.967
463.602
460.149
457.384
455.209
453.589
452.38
451.297
450.155
449.419
449.069
448.903
1500.93
1538.59
1564.72
1592.13
1616.49
1640.6
1662.49
1683.65
1703.27
1721.97
1739.6
1756.34
1772.25
1787.39
1801.82
1815.57
1828.67
1841.17
1853.04
1863.99
1874.63
1885.05
1895.02
1904.37
1913.03
1921.28
1929.16
1936.66
1943.79
1950.54
1956.91
1962.9
1968.51
1973.72
1978.55
1982.97
1986.98
1990.57
1993.72
1996.43
1998.66
2000.38
2001.56
2002.13
2002.16
2001.5
2000.15
1997.98
1994.97
1991.14
1986.46
1980.93
1974.61
1967.23
1958.78
1949.42
1939.06
1927.68
1915.24
1901.85
1887.5
1872.27
1856.1
1839
1820.96
1802.03
1782.26
1761.67
1740.28
1718.15
1695.33
1671.84
1647.81
1623.25
1598.12
1572.51
1546.38
1519.83
1492.97
1465.79
1438.16
1410.22
1381.93
1353.03
1323.81
1294.15
1263.43
1231.98
1200.46
1168.04
1134.42
1100.38
1065.13
1029.09
992.502
955.619
918.941
882.709
847.515
813.786
781.851
751.983
723.773
697.725
673.215
650.459
629.216
609.023
589.85
571.881
554.897
538.777
523.691
510.053
498.085
487.913
479.339
472.033
465.967
461.222
457.539
454.395
452.128
451.024
450.453
1577.71
1607.5
1633.68
1658.32
1681.54
1703.7
1724.52
1744.31
1762.98
1780.83
1797.79
1813.97
1829.43
1844.24
1858.4
1871.95
1884.89
1897.25
1908.98
1920.14
1931.05
1941.63
1951.7
1961.13
1970.08
1978.65
1986.86
1994.71
2002.19
2009.29
2016.02
2022.36
2028.31
2033.85
2039
2043.72
2048.04
2051.92
2055.36
2058.34
2060.83
2062.78
2064.15
2064.84
2064.98
2064.4
2063.06
2060.92
2057.94
2054.12
2049.43
2043.87
2037.43
2030
2021.59
2012.18
2001.79
1990.59
1977.93
1964.41
1949.86
1934.23
1917.47
1899.79
1881.25
1861.86
1841.68
1820.68
1798.85
1776.29
1753.09
1729.3
1704.97
1680.16
1654.94
1629.36
1603.54
1577.42
1550.94
1524.22
1497.32
1470.27
1442.97
1415.37
1387.49
1359.21
1330.39
1301.19
1271.74
1241.72
1211
1179.49
1147.21
1114.23
1080.82
1047.31
1013.94
981.462
949.568
918.223
887.896
858.78
830.712
803.816
777.922
753.062
729.055
705.681
682.902
660.789
639.339
618.58
598.475
579.292
561.205
543.93
527.902
513.402
499.855
487.937
478.215
469.982
463.27
459.04
456.418
1647.16
1673.5
1698.89
1722.15
1744.29
1765.38
1785.41
1804.48
1822.66
1840.07
1856.74
1872.73
1888.03
1902.84
1917.04
1930.67
1943.72
1956.25
1968.28
1979.99
1991.38
2002.32
2012.7
2022.57
2032.06
2041.21
2049.99
2058.41
2066.46
2074.13
2081.42
2088.31
2094.8
2100.87
2106.52
2111.74
2116.53
2120.88
2124.77
2128.17
2131.02
2133.29
2134.91
2135.76
2135.99
2135.49
2134.18
2132.03
2129.04
2125.18
2120.46
2114.84
2108.3
2100.77
2092.23
2082.63
2071.96
2060.21
2047.28
2033.25
2018.14
2002.01
1984.73
1966.34
1947.05
1926.81
1905.5
1883.3
1860.42
1836.94
1812.98
1788.51
1763.53
1738.14
1712.47
1686.57
1660.51
1634.31
1608.06
1581.66
1555.11
1528.54
1501.95
1475.29
1448.52
1421.55
1394.3
1366.78
1338.98
1310.81
1282.15
1253.01
1223.43
1193.53
1163.39
1133.03
1102.6
1072.43
1042.62
1013.36
984.773
956.958
929.873
903.415
877.324
851.796
826.749
802.064
777.671
753.575
729.796
706.347
683.105
660.338
638.268
616.56
595.433
575.799
556.65
537.876
520.474
504.378
490.103
479.202
471.449
1715.61
1740.58
1765.39
1787.78
1809.2
1829.69
1849.25
1867.99
1885.98
1903.28
1919.94
1936.01
1951.52
1966.52
1981
1994.99
2008.31
2021.38
2034.18
2046.65
2058.66
2070.12
2081.07
2091.68
2101.96
2111.87
2121.43
2130.61
2139.42
2147.85
2155.89
2163.52
2170.71
2177.47
2183.78
2189.64
2195.07
2200.07
2204.58
2208.54
2211.87
2214.5
2216.37
2217.36
2217.66
2217.22
2215.9
2213.73
2210.7
2206.81
2202.03
2196.35
2189.71
2182.05
2173.29
2163.39
2152.27
2139.91
2126.28
2111.38
2095.26
2077.95
2059.45
2039.83
2019.21
1997.66
1975.42
1951.95
1927.81
1903.01
1877.46
1851.4
1825.1
1798.68
1772.23
1745.69
1719.07
1692.48
1666.02
1639.7
1613.53
1587.41
1561.31
1535.35
1509.44
1483.52
1457.56
1431.51
1405.33
1378.94
1352.28
1325.35
1298.13
1270.69
1243.08
1215.41
1187.81
1160.36
1133
1105.65
1078.53
1051.75
1025.38
999.442
973.597
948.426
923.627
898.621
873.634
848.666
823.711
798.766
773.708
748.62
723.789
699.147
674.272
650.24
626.545
602.51
579.423
557.191
535.817
516.85
501.649
1784.74
1809.8
1834.25
1856.15
1877.23
1897.46
1916.88
1935.58
1953.63
1971.08
1987.96
2004.31
2020.17
2035.56
2050.5
2065
2079.08
2092.94
2106.69
2119.99
2132.67
2144.78
2156.51
2168.06
2179.26
2189.95
2200.4
2210.44
2220.1
2229.39
2238.26
2246.68
2254.57
2262.05
2269.04
2275.6
2281.77
2287.53
2292.8
2297.41
2301.24
2304.18
2306.19
2307.24
2307.58
2307.18
2305.87
2303.7
2300.67
2296.8
2292.04
2286.37
2279.7
2271.95
2263.03
2252.83
2241.19
2228.1
2213.54
2197.55
2180.15
2161.36
2141.23
2119.9
2097.46
2074
2049.61
2024.27
1998.19
1971.56
1944.74
1917.25
1889.63
1861.84
1833.74
1805.73
1778.02
1750.7
1723.76
1697.15
1670.9
1645.07
1619.65
1594.44
1569.29
1544.35
1519.56
1494.85
1470.14
1445.35
1420.44
1395.39
1370.22
1344.93
1319.56
1294.17
1268.81
1243.47
1218.16
1192.94
1167.82
1142.82
1117.83
1092.67
1067.41
1042.39
1017.27
992.081
967.548
942.424
917.068
891.474
865.52
839.18
812.626
785.978
758.697
731.417
704.249
676.432
648.986
622.05
594.837
568.851
546.717
1855.01
1881.11
1905.43
1927.17
1948.24
1968.47
1987.99
2006.87
2025.15
2042.88
2060.09
2076.82
2093.11
2109
2124.51
2139.68
2154.58
2169.33
2183.88
2197.86
2211.14
2223.88
2236.33
2248.71
2260.67
2272.17
2283.28
2294
2304.35
2314.31
2323.81
2332.75
2340.76
2348.68
2356.04
2363.08
2369.88
2376.29
2382.27
2387.41
2391.53
2394.52
2396.43
2397.45
2397.82
2397.5
2396.26
2394.18
2391.33
2387.66
2383.15
2377.72
2371.28
2363.81
2355.18
2345.21
2333.31
2319.65
2304.32
2287.4
2268.93
2248.78
2227.05
2203.91
2179.47
2153.84
2127.12
2099.44
2070.98
2041.97
2012.69
1983.27
1953.85
1924.47
1895.29
1866.1
1837.24
1808.66
1780.41
1752.9
1726.21
1700.35
1675.16
1650.5
1626.41
1602.59
1578.94
1555.41
1532.07
1508.81
1485.55
1462.26
1438.9
1415.44
1391.92
1368.35
1344.74
1321.13
1297.54
1273.96
1250.39
1226.81
1203.14
1179.38
1155.53
1131.65
1107.41
1082.71
1057.79
1032.09
1006.42
980.923
954.656
927.867
900.475
872.572
843.88
814.565
784.862
754.446
723.785
693.245
661.964
630.792
602.493
1926.1
1954
1978.3
2000.12
2021.4
2041.79
2061.51
2080.6
2099.12
2117.08
2134.55
2151.58
2168.21
2184.49
2200.45
2216.14
2231.6
2246.79
2261.56
2275.66
2289.11
2302.09
2314.77
2327.3
2339.46
2351.06
2362.18
2372.87
2383.13
2392.87
2401.91
2410.11
2417.42
2424.08
2430.32
2436.57
2442.94
2448.49
2454.09
2458.55
2461.73
2463.68
2464.8
2465.31
2465.48
2465
2463.88
2462.14
2459.97
2457.22
2453.82
2449.53
2444.29
2438.54
2431.73
2423.81
2413.11
2400.3
2385.94
2370
2352
2331.8
2309.49
2285.52
2259.72