/*--------------------------------*- C++ -*----------------------------------*\
| =========                 |                                                 |
| \\      /  F ield         | OpenFOAM: The Open Source CFD Toolbox           |
|  \\    /   O peration     | Version:  2112                                  |
|   \\  /    A nd           | Website:  www.openfoam.com                      |
|    \\/     M anipulation  |                                                 |
\*---------------------------------------------------------------------------*/
FoamFile
{
    version     2.0;
    format      ascii;
    arch        "LSB;label=32;scalar=64";
    class       volScalarField;
    location    "0.00792";
    object      alphat;
}
// * * * * * * * * * * * * * * * * * * * * * * * * * * * * * * * * * * * * * //

dimensions      [1 -1 -1 0 0 0 0];

internalField   nonuniform List<scalar> 
13875
(
0.11986
0.0816022
0.0784487
0.0782782
0.0783255
0.0783853
0.0783076
0.0782698
0.0783113
0.0782911
0.0782759
0.0783097
0.0783854
0.0784121
0.0783945
0.0782975
0.0782558
0.0782943
0.078303
0.0783545
0.0783208
0.0782662
0.078486
0.0814903
0.120927
0.103938
0.0576786
0.0570799
0.0571591
0.0566539
0.0566645
0.0570417
0.0571576
0.057207
0.0571599
0.0571199
0.057119
0.0566587
0.0566141
0.0566678
0.0570978
0.0571186
0.0571516
0.0570738
0.0566797
0.0566745
0.0571389
0.0570672
0.0573664
0.104482
0.110618
0.0553236
0.0558736
0.0547226
0.0545704
0.0544481
0.0542522
0.0542505
0.0543994
0.0543804
0.054225
0.0543426
0.0542516
0.0542749
0.0542399
0.0543498
0.054108
0.0542507
0.0542809
0.054451
0.0545303
0.0546024
0.0557867
0.0550668
0.111181
0.115884
0.0546431
0.0553805
0.0543132
0.0540341
0.0539066
0.0536381
0.0535424
0.0535557
0.0535175
0.0534054
0.0534892
0.0537059
0.0537385
0.0536921
0.0534824
0.0533631
0.0534612
0.0536342
0.0539058
0.0539993
0.0542029
0.0551963
0.0542821
0.115876
0.121029
0.0546319
0.0551191
0.0537449
0.0536699
0.0534833
0.053135
0.053055
0.0530568
0.0530177
0.0529164
0.0529979
0.0532254
0.053264
0.0532148
0.0529935
0.0528754
0.0529532
0.053109
0.0534748
0.0536071
0.0536125
0.0550209
0.0543226
0.121469
0.124404
0.0547419
0.0551852
0.0536023
0.053292
0.0530694
0.0527429
0.0526429
0.05264
0.0525781
0.052483
0.0525439
0.0527826
0.0528504
0.0527659
0.0525383
0.0524463
0.0525445
0.052733
0.0530528
0.053238
0.053505
0.0548838
0.0543895
0.124124
0.128741
0.0564713
0.0557808
0.0534509
0.053266
0.0528724
0.0523774
0.0522634
0.0522437
0.0521919
0.0521158
0.0521668
0.0524153
0.0524778
0.0523978
0.0521476
0.0520752
0.0521598
0.0523571
0.0528606
0.0531944
0.0533638
0.0556432
0.0563522
0.128989
0.135697
0.0611926
0.0578331
0.0544057
0.0534042
0.0528337
0.0522389
0.0520406
0.0519536
0.0518874
0.0518327
0.051841
0.0521146
0.0521882
0.0520828
0.0518201
0.051804
0.0519218
0.0522174
0.0527875
0.0533244
0.0542767
0.0575126
0.0610281
0.135548
0.151297
0.0692388
0.0615353
0.0559193
0.054407
0.053149
0.0522239
0.0519105
0.0517684
0.051693
0.0516644
0.0516542
0.0519495
0.0520305
0.0519224
0.0516205
0.0516518
0.0517991
0.0521598
0.0530912
0.0542243
0.0556158
0.0610277
0.0684045
0.154132
0.239305
0.0874293
0.0664564
0.0589944
0.0554048
0.0537339
0.0525782
0.0520978
0.0518258
0.0517403
0.0517418
0.0517006
0.0520197
0.0521132
0.0519992
0.0517086
0.051761
0.0519462
0.0524369
0.0536043
0.0552572
0.0586515
0.0660036
0.0866759
0.241132
0.365357
0.118391
0.0759601
0.0629319
0.0576092
0.0548397
0.0532232
0.0526353
0.0523024
0.0522118
0.0522125
0.052151
0.0524675
0.0525719
0.0524904
0.0522588
0.0523097
0.0525488
0.0530318
0.0546148
0.0573217
0.0616196
0.0748216
0.113011
0.365675
0.658185
0.193085
0.104023
0.0744624
0.0614247
0.0574134
0.0552352
0.0541458
0.0536509
0.0534972
0.0534393
0.053382
0.0536499
0.0537761
0.0537688
0.0536732
0.0537554
0.0541566
0.0551095
0.0568423
0.0618818
0.0733757
0.100159
0.182875
0.643601
0.582045
0.437046
0.176084
0.0924188
0.0769256
0.065035
0.0596791
0.0577575
0.0568737
0.0565678
0.056412
0.056362
0.0565319
0.0566835
0.0567913
0.0568736
0.0571282
0.0579342
0.0598063
0.0652887
0.0762894
0.0896418
0.172009
0.433704
0.58131
0.491687
0.401159
0.34752
0.32597
0.115784
0.0803303
0.0733654
0.0675081
0.0650861
0.0643077
0.0638781
0.0637211
0.0637741
0.0639498
0.0642431
0.064736
0.0656813
0.0683529
0.0749374
0.0832714
0.131011
0.328203
0.33739
0.40141
0.500151
0.408582
0.350011
0.329839
0.333465
0.300948
0.198222
0.126493
0.0945333
0.0865454
0.0859138
0.0853114
0.0850299
0.085063
0.0852586
0.0857184
0.0866519
0.0875672
0.0953002
0.133589
0.211184
0.302784
0.330178
0.33139
0.360384
0.421711
0.329985
0.293201
0.282036
0.300592
0.312441
0.321152
0.243671
0.191489
0.171242
0.148419
0.136323
0.132266
0.130821
0.131562
0.134281
0.143022
0.171446
0.195488
0.248555
0.324514
0.308131
0.30367
0.29143
0.298352
0.341935
0.239266
0.22734
0.225085
0.263643
0.318278
0.401432
0.531333
0.566321
0.541115
0.538684
0.558481
0.572002
0.579356
0.575864
0.562801
0.552727
0.540142
0.569069
0.531989
0.400476
0.314681
0.266709
0.230498
0.234662
0.252001
0.140597
0.152357
0.185498
0.227043
0.313512
0.43407
0.564054
0.618102
0.562017
0.511756
0.494591
0.491432
0.494348
0.493232
0.498483
0.530167
0.566218
0.608427
0.568131
0.440528
0.312903
0.22969
0.178034
0.143258
0.131454
0.0684157
0.102596
0.163357
0.24759
0.351028
0.409457
0.473714
0.533554
0.499974
0.452023
0.432478
0.429848
0.431395
0.434326
0.440451
0.461326
0.495216
0.528033
0.487485
0.424473
0.372394
0.266132
0.167777
0.104458
0.0702623
0.0263193
0.0518587
0.112543
0.230697
0.349078
0.362637
0.384343
0.42635
0.425224
0.402542
0.390151
0.384678
0.381973
0.389647
0.397489
0.405052
0.414088
0.415119
0.388282
0.374984
0.362808
0.232211
0.112861
0.0518804
0.0257308
0.0755081
0.0846197
0.112497
0.187206
0.276388
0.28589
0.306984
0.351449
0.369725
0.361095
0.3489
0.33811
0.332909
0.343927
0.355833
0.361126
0.357255
0.338707
0.306958
0.293312
0.281928
0.186399
0.111761
0.0858935
0.0806815
0.121453
0.142414
0.125335
0.156145
0.207673
0.224488
0.252178
0.298403
0.322928
0.320048
0.307784
0.294153
0.287516
0.29983
0.31417
0.319115
0.310627
0.286375
0.247509
0.227847
0.210383
0.153999
0.123301
0.141956
0.12254
0.164642
0.148618
0.12917
0.133889
0.163485
0.180568
0.211787
0.255691
0.280766
0.280564
0.267975
0.253439
0.246871
0.258055
0.272971
0.278432
0.268918
0.246542
0.206501
0.181868
0.164886
0.134105
0.127147
0.151707
0.166982
0.205778
0.178359
0.131391
0.123244
0.138044
0.154465
0.180331
0.220022
0.242838
0.243686
0.231452
0.218006
0.211932
0.222225
0.236142
0.241661
0.231637
0.211454
0.17617
0.154341
0.138985
0.123306
0.130075
0.189539
0.204018
0.225956
0.215455
0.13488
0.118798
0.121871
0.134562
0.156555
0.188494
0.208155
0.209731
0.199421
0.187144
0.182262
0.191114
0.204286
0.209339
0.199848
0.181806
0.154104
0.133941
0.121952
0.120541
0.135012
0.228712
0.2241
0.247852
0.245559
0.135823
0.115252
0.111334
0.120833
0.138441
0.164463
0.180197
0.181334
0.172708
0.162003
0.157354
0.165224
0.176507
0.180595
0.17276
0.158024
0.135799
0.120477
0.111973
0.116425
0.136445
0.256535
0.247159
0.27443
0.262807
0.137423
0.112246
0.104787
0.109291
0.124068
0.143286
0.155431
0.156159
0.149085
0.139922
0.136448
0.143029
0.15294
0.156321
0.149925
0.138092
0.121649
0.108513
0.105395
0.113656
0.14003
0.278141
0.269214
0.302431
0.282622
0.13764
0.107885
0.0994939
0.101494
0.112419
0.126826
0.135344
0.135353
0.129603
0.122227
0.118921
0.124929
0.133316
0.136486
0.131902
0.122663
0.109874
0.100909
0.100772
0.109352
0.141156
0.298235
0.298496
0.332049
0.311448
0.142851
0.10563
0.0969093
0.0947736
0.102531
0.112285
0.118621
0.118296
0.113429
0.106787
0.104202
0.108945
0.116016
0.118628
0.115476
0.108937
0.100698
0.0941659
0.0976432
0.106377
0.143915
0.313586
0.328149
0.35939
0.325042
0.143648
0.10162
0.0926234
0.0906668
0.0951206
0.101255
0.104794
0.10373
0.0995804
0.0943601
0.0917989
0.096333
0.10229
0.104804
0.102862
0.0980462
0.0925336
0.0891805
0.0934459
0.102855
0.146469
0.331153
0.351998
0.374597
0.330802
0.14946
0.10081
0.0905436
0.0862075
0.0886037
0.0904963
0.0925769
0.0913644
0.0880665
0.083306
0.0813765
0.0850494
0.0903887
0.0925219
0.0916588
0.0889386
0.0869999
0.0850469
0.0905744
0.101431
0.149766
0.33263
0.37527
0.383764
0.33063
0.154067
0.0991255
0.0862027
0.0815998
0.0831187
0.0834025
0.0838159
0.0819747
0.0786625
0.0747247
0.072592
0.076068
0.0805445
0.0827396
0.082743
0.0812355
0.0813219
0.08015
0.0857161
0.0997849
0.152509
0.329927
0.391714
0.402936
0.325736
0.159694
0.100595
0.0842914
0.0780477
0.0785956
0.0758996
0.0752247
0.0732133
0.0705416
0.0667637
0.0652072
0.06806
0.0723213
0.0742259
0.0749777
0.0749038
0.0771602
0.0766363
0.0834442
0.100203
0.159652
0.334379
0.402567
0.409879
0.320075
0.163542
0.100948
0.0807899
0.0742448
0.0731479
0.0704256
0.0688649
0.0665328
0.0637298
0.0606629
0.058945
0.0617491
0.065404
0.0676127
0.0688276
0.0693599
0.0720471
0.0728834
0.08
0.100548
0.164062
0.32563
0.409962
0.416943
0.318628
0.164157
0.1043
0.0809755
0.0721148
0.069415
0.0651454
0.0628363
0.0602333
0.0580236
0.0549007
0.0536273
0.0558659
0.0593669
0.0611389
0.0630852
0.0646639
0.0683243
0.0705344
0.0793398
0.102216
0.166369
0.326521
0.417696
0.423107
0.310758
0.162043
0.106161
0.0808698
0.0686569
0.064778
0.0607357
0.0583626
0.055662
0.0530426
0.0505006
0.049097
0.0513856
0.0544076
0.0566232
0.0584876
0.0598008
0.0640467
0.067623
0.0790599
0.105529
0.164809
0.323397
0.419332
0.428036
0.312466
0.161913
0.111851
0.0828632
0.0674863
0.06215
0.0562918
0.0537051
0.0507645
0.0488513
0.0462354
0.0451771
0.0470072
0.0500296
0.0517873
0.0543409
0.0561095
0.061554
0.066094
0.0806934
0.109545
0.162876
0.317869
0.428505
0.423573
0.31083
0.15937
0.120079
0.0849922
0.0657263
0.0586792
0.0528361
0.0502547
0.0476927
0.0452662
0.0430764
0.0418383
0.0437064
0.0463723
0.0484839
0.0504617
0.0519992
0.0580407
0.064388
0.0817338
0.117136
0.158559
0.312967
0.435631
0.420163
0.309673
0.155772
0.122898
0.0885305
0.0668262
0.0570232
0.0496869
0.0467327
0.0438286
0.042112
0.0398393
0.0389402
0.0404618
0.0430888
0.0446365
0.0474112
0.0494788
0.0561548
0.0650614
0.0858969
0.121634
0.154452
0.319818
0.432627
0.410803
0.310189
0.148618
0.122597
0.0942945
0.0669908
0.0546833
0.0469877
0.0440069
0.0415892
0.0394097
0.0375063
0.0364169
0.0380484
0.0403855
0.0422975
0.0443895
0.0464683
0.0540201
0.0651715
0.0890581
0.121979
0.148965
0.320658
0.423301
0.400077
0.310279
0.144426
0.1223
0.103802
0.0702297
0.0550191
0.0453455
0.0416677
0.0385808
0.0369743
0.0349739
0.0342127
0.0354812
0.0377738
0.0391695
0.0423067
0.0450632
0.0538163
0.0673764
0.0965149
0.121086
0.146012
0.324227
0.41026
0.395853
0.307885
0.138896
0.119627
0.108191
0.0723205
0.0542733
0.0440377
0.0397777
0.0370748
0.0349224
0.0331984
0.0322532
0.0337021
0.0357857
0.0375717
0.0400677
0.0433793
0.053595
0.0694635
0.107835
0.120585
0.14384
0.319203
0.392242
0.388086
0.309271
0.136779
0.115662
0.107977
0.0785688
0.0556566
0.0441412
0.0386179
0.0347387
0.0330053
0.0311899
0.0305362
0.0316385
0.0337451
0.0352325
0.0392477
0.0435646
0.0543887
0.0741867
0.107632
0.117149
0.140207
0.312046
0.384276
0.379886
0.305267
0.135757
0.110552
0.106798
0.0876386
0.0572601
0.0439127
0.0378175
0.0340063
0.0315557
0.0298837
0.0289986
0.0302605
0.0322637
0.0341943
0.0378103
0.0432021
0.0557435
0.0813435
0.107075
0.11248
0.137334
0.313223
0.378032
0.373981
0.302638
0.134448
0.106038
0.10371
0.0925275
0.0613777
0.0448157
0.0379798
0.0325626
0.0301866
0.0282991
0.0276646
0.0286549
0.0307762
0.0327305
0.0382838
0.0443148
0.0599754
0.0932554
0.104444
0.107034
0.138697
0.314173
0.37263
0.367285
0.30097
0.134651
0.102409
0.0984879
0.09201
0.0683719
0.0462871
0.0377662
0.0328327
0.0294862
0.0274626
0.0265426
0.0277575
0.0300563
0.0327501
0.0377324
0.0453052
0.066447
0.092795
0.100484
0.103803
0.139354
0.314827
0.369322
0.355439
0.294773
0.136182
0.100147
0.0938545
0.0909013
0.0794267
0.0505187
0.0388604
0.0323658
0.0290966
0.026589
0.0257176
0.0268275
0.0295204
0.0322822
0.0388426
0.0490158
0.076829
0.0918883
0.0952324
0.100409
0.141543
0.309331
0.362087
0.34589
0.290468
0.134915
0.0980918
0.0900307
0.0879306
0.0795238
0.0568626
0.0400812
0.0329782
0.0291556
0.0266268
0.0251388
0.0268152
0.029669
0.0328787
0.0396292
0.0551364
0.0782657
0.0888681
0.091966
0.100483
0.141271
0.301369
0.35167
0.319926
0.279022
0.134393
0.0970453
0.0873552
0.0844081
0.0786144
0.0669443
0.0442351
0.0331655
0.0291703
0.0263635
0.0251393
0.0265558
0.029571
0.0330393
0.0437725
0.0647684
0.0780186
0.0851301
0.0888
0.0987813
0.140269
0.286347
0.325483
0.290378
0.260342
0.129926
0.0954866
0.0852558
0.0802511
0.0767457
0.0679268
0.050003
0.0359112
0.0297923
0.0267759
0.0252226
0.0269207
0.0301484
0.0353238
0.0487154
0.0681321
0.0763829
0.0803797
0.0860881
0.0974689
0.133384
0.266862
0.295247
0.0730502
0.168051
0.2566
0.34377
0.384989
0.358364
0.307535
0.274109
0.275418
0.307235
0.332798
0.349639
0.357114
0.409593
0.492455
0.578881
0.629776
0.675631
0.709928
0.749786
0.77846
0.776418
0.757073
0.725163
0.683857
0.632286
0.57306
0.49898
0.39067
0.192794
0.0717971
0.198548
0.311892
0.395641
0.405179
0.361163
0.306477
0.278192
0.280741
0.306898
0.333467
0.366292
0.395679
0.452215
0.501551
0.556367
0.592201
0.63384
0.674749
0.713284
0.728597
0.723417
0.703781
0.672929
0.634037
0.586577
0.532887
0.465484
0.364618
0.185581
0.0834715
0.239636
0.35966
0.4327
0.421817
0.364732
0.318203
0.298837
0.30011
0.32075
0.346988
0.37862
0.415918
0.458803
0.491331
0.530244
0.567736
0.603841
0.646188
0.676632
0.683106
0.674356
0.654873
0.625722
0.589539
0.546046
0.497385
0.436443
0.342832
0.179825
0.0897567
0.285295
0.414423
0.485822
0.451946
0.39846
0.359237
0.342469
0.340495
0.354212
0.384667
0.4168
0.447615
0.47646
0.496391
0.52045
0.548387
0.580919
0.615638
0.635789
0.637765
0.627286
0.607568
0.580153
0.547147
0.508465
0.465744
0.410671
0.323594
0.174965
0.101012
0.330842
0.468283
0.527565
0.477675
0.448832
0.43154
0.421951
0.420588
0.429472
0.452528
0.472287
0.483352
0.49534
0.501387
0.513664
0.536295
0.563107
0.590056
0.602254
0.599769
0.588051
0.56866
0.54307
0.512688
0.478226
0.439925
0.389039
0.306814
0.169128
0.109295
0.384156
0.524674
0.580647
0.525412
0.498448
0.491138
0.492443
0.498256
0.50943
0.51655
0.516764
0.508795
0.50601
0.504758
0.510837
0.527122
0.54697
0.564358
0.568303
0.562088
0.549506
0.531063
0.50744
0.479919
0.448967
0.414505
0.367262
0.289884
0.162839
0.120843
0.442369
0.595992
0.639981
0.579385
0.552796
0.544332
0.545512
0.55258
0.561745
0.558297
0.548352
0.533003
0.522362
0.512611
0.510435
0.518621
0.531352
0.539057
0.536859
0.52826
0.515634
0.498616
0.477098
0.452341
0.424474
0.392388
0.347721
0.274195
0.15655
0.132968
0.508168
0.673099
0.707473
0.647784
0.625392
0.619758
0.619865
0.622676
0.624893
0.613411
0.593108
0.570281
0.54642
0.52466
0.510296
0.509046
0.51354
0.512265
0.506016
0.496412
0.484182
0.468603
0.449261
0.4269
0.401317
0.371136
0.329572
0.260274
0.151227
0.146964
0.575638
0.748426
0.782517
0.718362
0.702386
0.701254
0.702936
0.700659
0.689752
0.66797
0.641078
0.609772
0.572433
0.536067
0.509813
0.500168
0.494233
0.486592
0.477777
0.467993
0.456781
0.442849
0.42569
0.405512
0.381929
0.353652
0.314284
0.247875
0.146248
0.160987
0.647229
0.832648
0.865885
0.790854
0.768257
0.764557
0.764092
0.756922
0.740044
0.715558
0.685008
0.645697
0.596318
0.546756
0.510948
0.491231
0.475315
0.463006
0.452421
0.442569
0.432317
0.41982
0.404754
0.386157
0.364201
0.337356
0.299579
0.235767
0.141264
0.176203
0.71922
0.922047
0.946355
0.851321
0.820903
0.813579
0.808061
0.799375
0.78007
0.754115
0.722354
0.675351
0.620595
0.561068
0.514507
0.48232
0.45854
0.44203
0.430203
0.420703
0.411323
0.400091
0.386793
0.369874
0.349271
0.323634
0.287078
0.225501
0.136871
0.191586
0.790874
1.01636
1.02002
0.900421
0.857972
0.84643
0.83823
0.829244
0.812073
0.788347
0.755216
0.705454
0.647413
0.579649
0.520323
0.475482
0.444283
0.424176
0.4113
0.401957
0.39321
0.382961
0.370802
0.354942
0.335328
0.310748
0.275568
0.216401
0.132615
0.206178
0.858601
1.10489
1.07358
0.931315
0.878536
0.866696
0.859776
0.85435
0.840376
0.820117
0.787337
0.737343
0.674452
0.600176
0.529212
0.472215
0.433703
0.410272
0.396224
0.386659
0.37823
0.368612
0.357071
0.341888
0.322264
0.297736
0.263705
0.206547
0.127932
0.219183
0.918191
1.16615
1.09956
0.945694
0.886505
0.878034
0.875295
0.873936
0.863593
0.847732
0.817837
0.769555
0.704372
0.624655
0.542993
0.472423
0.427552
0.4005
0.3846
0.374497
0.366423
0.356995
0.345842
0.330616
0.31201
0.288943
0.255611
0.199652
0.125192
0.230086
0.958954
1.20015
1.11525
0.949271
0.888295
0.883445
0.887073
0.889022
0.88283
0.872072
0.846469
0.801313
0.736431
0.652961
0.559806
0.478804
0.426645
0.395664
0.377087
0.365903
0.357742
0.348732
0.337158
0.322704
0.30484
0.282237
0.249076
0.194303
0.123262
0.236715
0.983992
1.21468
1.1216
0.953753
0.889748
0.886569
0.896778
0.901822
0.899249
0.892513
0.870756
0.829654
0.76746
0.681563
0.58284
0.494501
0.433192
0.39627
0.374101
0.361241
0.352192
0.34277
0.330761
0.316189
0.299119
0.276758
0.243541
0.189687
0.121439
0.240672
1.00063
1.22237
1.12523
0.955946
0.891392
0.885668
0.900848
0.908479
0.908309
0.906322
0.887266
0.853393
0.798073
0.714344
0.612048
0.517752
0.445708
0.400552
0.373961
0.358615
0.346726
0.335888
0.324565
0.310783
0.29406
0.271745
0.238344
0.185332
0.119779
0.242809
1.00402
1.20562
1.11715
0.95222
0.888515
0.881383
0.8972
0.908901
0.911277
0.913453
0.900017
0.875094
0.829281
0.751495
0.651064
0.549636
0.464426
0.407407
0.374823
0.354002
0.341089
0.330485
0.319305
0.306102
0.289434
0.26699
0.233731
0.181586
0.118449
0.240946
0.990201
1.16838
1.09509
0.94099
0.881308
0.875101
0.889202
0.907039
0.912961
0.915037
0.907676
0.892386
0.859539
0.792516
0.698042
0.589127
0.487624
0.415814
0.374674
0.351266
0.337189
0.326169
0.314952
0.302066
0.285295
0.262772
0.229836
0.178357
0.117428
0.238716
0.967012
1.11641
1.05739
0.92159
0.870725
0.867451
0.88226
0.901471
0.913065
0.914857
0.912075
0.906623
0.888471
0.83534
0.748935
0.632134
0.513966
0.426083
0.375261
0.350237
0.334871
0.323224
0.311678
0.29875
0.282128
0.259811
0.227156
0.176033
0.116858
0.233145
0.923131
1.04216
1.00199
0.894185
0.857459
0.858342
0.876045
0.896082
0.91272
0.917778
0.918047
0.920549
0.914833
0.873029
0.790152
0.673154
0.546463
0.4431
0.381215
0.352402
0.334502
0.321428
0.309434
0.296991
0.280944
0.25867
0.225327
0.174128
0.116641
0.230419
0.867106
0.958761
0.932697
0.859353
0.841227
0.848879
0.870487
0.892808
0.914299
0.924516
0.927065
0.933672
0.936909
0.901336
0.825199
0.719583
0.589
0.469768
0.3936
0.357317
0.336256
0.321359
0.308996
0.296571
0.280055
0.257212
0.22337
0.172087
0.1162
0.219779
0.780211
0.848366
0.851004
0.818033
0.822882
0.84031
0.866792
0.892968
0.913632
0.9283
0.932759
0.938171
0.947369
0.919216
0.85737
0.766759
0.638821
0.506739
0.41306
0.363808
0.338267
0.322309
0.310096
0.296604
0.278978
0.255359
0.220917
0.169963
0.115854
0.21644
0.682447
0.731758
0.767392
0.774349
0.802657
0.831073
0.863185
0.890799
0.910319
0.925103
0.92979
0.930116
0.943775
0.930434
0.886021
0.81473
0.695633
0.554015
0.441036
0.374594
0.34203
0.323322
0.310194
0.295699
0.277136
0.252875
0.218204
0.16808
0.115441
0.18443
0.515003
0.592189
0.682368
0.730093
0.778403
0.818853
0.856489
0.886795
0.905978
0.9201
0.925656
0.92314
0.941089
0.943134
0.914049
0.861345
0.754882
0.610534
0.479225
0.390853
0.347868
0.324725
0.309662
0.29412
0.274742
0.250236
0.215894
0.166672
0.115237
0.193035
0.391778
0.500896
0.575197
0.633985
0.683699
0.725306
0.758095
0.780076
0.782974
0.760446
0.713564
0.675168
0.626715
0.570776
0.488197
0.403094
0.359257
0.350968
0.335215
0.308274
0.277587
0.279122
0.31416
0.369273
0.399044
0.354567
0.262604
0.16927
0.0733714
0.185812
0.365313
0.467006
0.534683
0.588333
0.634319
0.673118
0.704756
0.726598
0.733169
0.721116
0.685004
0.636631
0.593634
0.551129
0.497016
0.447997
0.396449
0.368017
0.336401
0.309853
0.285749
0.285274
0.315395
0.373817
0.417895
0.404145
0.317079
0.201361
0.0723171
0.179957
0.343346
0.437736
0.498892
0.547699
0.590525
0.626279
0.656375
0.677277
0.686818
0.682256
0.657203
0.609201
0.573768
0.53477
0.490864
0.457643
0.419295
0.383568
0.352544
0.327399
0.308451
0.309398
0.330959
0.379503
0.436443
0.44263
0.365557
0.244833
0.0845852
0.174947
0.32383
0.411507
0.46685
0.509859
0.548638
0.581115
0.608828
0.630023
0.641131
0.640861
0.624453
0.587646
0.552476
0.528385
0.502955
0.479477
0.454162
0.425457
0.395038
0.367188
0.358333
0.363984
0.380256
0.417781
0.470404
0.502626
0.426952
0.293416
0.0912581
0.168701
0.306221
0.389108
0.440387
0.479054
0.513529
0.543434
0.569002
0.589709
0.601875
0.605705
0.597053
0.57102
0.54051
0.522002
0.510647
0.500976
0.493513
0.48523
0.468856
0.447523
0.441613
0.444158
0.451832
0.47087
0.499004
0.548721
0.483018
0.340061
0.103261
0.162325
0.288512
0.366647
0.414309
0.449327
0.480197
0.507142
0.530665
0.55013
0.563299
0.570368
0.568833
0.554472
0.532757
0.519299
0.516224
0.516115
0.520118
0.529821
0.533263
0.527229
0.516788
0.510495
0.510638
0.518921
0.548208
0.607566
0.54135
0.39381
0.111797
0.155637
0.272059
0.346286
0.391391
0.424061
0.452439
0.476635
0.497974
0.515573
0.528885
0.537847
0.541782
0.537758
0.525264
0.519704
0.525761
0.535208
0.547998
0.565861
0.57911
0.582501
0.57424
0.567294
0.567135
0.57649
0.605318
0.670041
0.617514
0.453911
0.123404
0.150066
0.257574
0.32753
0.369803
0.400439
0.426645
0.448677
0.467985
0.483694
0.496625
0.50656
0.514166
0.518246
0.51683
0.520599
0.539035
0.563937
0.590384
0.615547
0.637225
0.651325
0.650758
0.648188
0.647572
0.653591
0.67771
0.741075
0.696125
0.520229
0.135
0.145015
0.24505
0.311846
0.352085
0.381134
0.405249
0.425186
0.442297
0.456048
0.467752
0.478003
0.488088
0.497948
0.508361
0.521491
0.552432
0.59323
0.632769
0.665191
0.692281
0.715076
0.727334
0.730417
0.728737
0.731619
0.751671
0.822894
0.774995
0.591177
0.148801
0.140022
0.233077
0.297092
0.335445
0.363392
0.385936
0.404618
0.419707
0.431887
0.442165
0.452304
0.463964
0.47867
0.49843
0.523555
0.565147
0.618954
0.669481
0.709807
0.73904
0.76385
0.780924
0.788535
0.790383
0.796835
0.825922
0.911483
0.860124
0.664378
0.163116
0.135567
0.222939
0.284504
0.321421
0.348399
0.369849
0.387126
0.400404
0.411326
0.420366
0.430105
0.442766
0.461388
0.488834
0.52692
0.579337
0.643211
0.698268
0.745243
0.775358
0.800773
0.819796
0.829181
0.836711
0.847625
0.885986
0.994682
0.949704
0.736807
0.17867
0.131515
0.214106
0.272822
0.30813
0.334101
0.355009
0.371424
0.383674
0.393693
0.401828
0.411389
0.424934
0.447067
0.481898
0.531859
0.596295
0.666445
0.725819
0.775349
0.807315
0.83013
0.846729
0.856475
0.866175
0.881573
0.933081
1.06897
1.04306
0.809491
0.194312
0.126559
0.204132
0.260665
0.294562
0.319394
0.341474
0.357651
0.369426
0.378924
0.386903
0.396667
0.411284
0.436659
0.478877
0.539923
0.614935
0.69097
0.754409
0.804119
0.836474
0.856128
0.869424
0.875361
0.882931
0.898996
0.961297
1.11867
1.12871
0.876152
0.208751
0.123589
0.196873
0.2524
0.285937
0.309659
0.329497
0.345892
0.357704
0.366686
0.375133
0.385752
0.402371
0.431354
0.480084
0.551837
0.636149
0.717858
0.783448
0.83158
0.861576
0.877893
0.887769
0.889278
0.892125
0.904381
0.973086
1.14149
1.1839
0.934344
0.221601
0.12145
0.191198
0.2458
0.279366
0.302722
0.321604
0.337023
0.349069
0.358293
0.366543
0.37858
0.39843
0.431888
0.487331
0.567777
0.660596
0.746714
0.812363
0.857762
0.884027
0.896078
0.902447
0.900619
0.896972
0.905533
0.975822
1.15518
1.21241
0.972735
0.232284
0.119582
0.186398
0.240314
0.27404
0.297482
0.315576
0.330961
0.343325
0.353278
0.362261
0.376039
0.399202
0.438411
0.501572
0.590389
0.68844
0.775122
0.838205
0.880031
0.902557
0.911052
0.914608
0.910325
0.900769
0.908155
0.981196
1.16103
1.22445
0.996288
0.238229
0.117903
0.182058
0.235255
0.269295
0.292942
0.310669
0.326074
0.338695
0.349921
0.36053
0.37647
0.403931
0.450434
0.522932
0.61953
0.720515
0.803722
0.859786
0.894863
0.914956
0.919229
0.920811
0.913986
0.900364
0.910891
0.984173
1.164
1.2312
1.01244
0.241621
0.116541
0.17832
0.2307
0.264862
0.288661
0.306291
0.320891
0.333143
0.344321
0.359194
0.37873
0.411367
0.46797
0.552967
0.656302
0.756512
0.833796
0.880156
0.906366
0.921291
0.92152
0.920563
0.909539
0.89637
0.908157
0.980147
1.15409
1.21175
1.01311
0.243493
0.115491
0.175229
0.226839
0.260988
0.284667
0.302355
0.316453
0.328503
0.34022
0.35572
0.380791
0.422058
0.492368
0.591299
0.701281
0.796709
0.863533
0.897008
0.913533
0.92222
0.922324
0.917859
0.901039
0.889633
0.900992
0.968032
1.1296
1.17524
0.998763
0.240988
0.114983
0.173119
0.224074
0.258059
0.281321
0.298974
0.31299
0.325146
0.337609
0.35406
0.380712
0.431416
0.518236
0.634963
0.750484
0.837923
0.891351
0.910194
0.916707
0.920832
0.921042
0.911403
0.893905
0.881607
0.88991
0.947216
1.08936
1.12463
0.97534
0.238725
0.114961
0.171764
0.2227
0.256937
0.279717
0.296943
0.310687
0.323303
0.337145
0.355272
0.385204
0.44411
0.547293
0.674635
0.790104
0.873015
0.915106
0.921897
0.920776
0.921943
0.918896
0.905591
0.887302
0.872156
0.876057
0.918258
1.0314
1.0522
0.931493
0.233333
0.114892
0.170321
0.221619
0.256339
0.279283
0.296446
0.310163
0.323039
0.338569
0.359657
0.395193
0.468049
0.585378
0.716357
0.820693
0.896856
0.932886
0.931908
0.927545
0.926746
0.919256
0.902099
0.881818
0.862638
0.859279
0.882352
0.960027
0.970212
0.874166
0.230357
0.114879
0.168847
0.220084
0.255133
0.278902
0.296652
0.310404
0.324163
0.340382
0.365673
0.413393
0.50319
0.633133
0.759558
0.849426
0.911918
0.941075
0.935061
0.932212
0.92979
0.918277
0.902063
0.878946
0.854726
0.840723
0.839876
0.876485
0.861095
0.788091
0.219535
0.114684
0.167434
0.218163
0.253339
0.278167
0.296689
0.311189
0.324998
0.343636
0.375597
0.439273
0.549195
0.687417
0.805343
0.87693
0.923029
0.938945
0.928637
0.930964
0.92841
0.916307
0.898924
0.875648
0.846608
0.820564
0.795447
0.790784
0.74549
0.690904
0.215839
0.114645
0.166417
0.216262
0.251263
0.276548
0.295763
0.311112
0.326643
0.349334
0.390856
0.473983
0.602692
0.744615
0.850425
0.90404
0.935733
0.93739
0.923225
0.926923
0.924291
0.913386
0.896332
0.869824
0.835124
0.796482
0.749966
0.704527
0.606148
0.524019
0.184553
0.429076
0.428269
0.435482
0.438244
0.447337
0.455837
0.472582
0.495239
0.496215
0.495172
0.498245
0.501819
0.507081
0.515235
0.526018
0.535152
0.540387
0.541644
0.539531
0.53537
0.529596
0.522974
0.515695
0.50804
0.50012
0.493646
0.487762
0.481335
0.474997
0.46893
0.462902
0.456957
0.451095
0.44533
0.439635
0.43411
0.428563
0.423032
0.417683
0.412379
0.407119
0.401875
0.396672
0.391519
0.386392
0.38138
0.376388
0.371357
0.366139
0.360528
0.354493
0.348077
0.341204
0.333673
0.32543
0.316477
0.306798
0.296402
0.285252
0.273509
0.261366
0.248983
0.236779
0.225741
0.215755
0.20643
0.197524
0.189077
0.181208
0.17405
0.167488
0.160964
0.154624
0.148538
0.142752
0.137341
0.132354
0.127826
0.123738
0.120056
0.116717
0.113744
0.111118
0.108868
0.106922
0.105227
0.103743
0.102441
0.101347
0.100454
0.0996988
0.0991172
0.0986517
0.0984642
0.0985371
0.0989001
0.0995931
0.100339
0.101172
0.10216
0.103491
0.104668
0.106497
0.107973
0.109339
0.110737
0.112011
0.11316
0.114081
0.11482
0.115757
0.11645
0.115978
0.116465
0.116758
0.117139
0.117287
0.117249
0.117264
0.116895
0.115723
0.114874
0.114217
0.114341
0.114636
3.50252
3.56037
3.6627
3.72272
3.81638
3.88569
3.98514
4.1313
4.26121
4.30172
4.37351
4.48443
4.60628
4.73465
4.85458
4.94014
4.98319
4.98558
4.95477
4.90077
4.8319
4.75565
4.67661
4.59806
4.52299
4.45021
4.37628
4.30306
4.2303
4.1599
4.09101
4.02487
3.96116
3.89982
3.84054
3.78327
3.72776
3.67368
3.62106
3.56964
3.5191
3.46906
3.41938
3.3698
3.32005
3.26967
3.21861
3.16638
3.11232
3.05607
2.99752
2.93672
2.87325
2.80657
2.7358
2.66018
2.57882
2.49108
2.39655
2.29446
2.1855
2.07006
1.94774
1.81718
1.68069
1.54162
1.40314
1.26934
1.14429
1.02948
0.923709
0.828014
0.742115
0.665719
0.598335
0.539529
0.489034
0.446095
0.409581
0.378429
0.35167
0.32851
0.308238
0.29053
0.275018
0.261399
0.249516
0.238982
0.229293
0.220427
0.212406
0.205186
0.198701
0.193187
0.188405
0.184596
0.181752
0.179906
0.178644
0.177817
0.177216
0.176687
0.176877
0.176903
0.1766
0.176138
0.175629
0.175615
0.174899
0.173735
0.172105
0.171238
0.171536
0.171531
0.170547
0.169943
0.169501
0.169643
0.169767
0.169286
0.167759
0.165565
0.16472
0.165211
0.165962
5.0253
5.09786
5.24174
5.35949
5.51233
5.65821
5.83847
6.05765
6.35329
6.50527
6.63181
6.785
6.93363
7.06264
7.17459
7.26044
7.31337
7.33229
7.3195
7.27986
7.22005
7.14583
7.0617
6.97134
6.87794
6.78358
6.68941
6.5949
6.49978
6.40596
6.31273
6.22522
6.13973
6.05675
5.97617
5.89779
5.82116
5.74556
5.67017
5.59455
5.518
5.43999
5.35993
5.27725
5.19216
5.10423
5.01297
4.91802
4.81915
4.71633
4.60943
4.49849
4.38366
4.26497
4.14244
4.0162
3.88652
3.75365
3.61745
3.47824
3.33538
3.18919
3.04071
2.89127
2.74207
2.59361
2.44572
2.29829
2.14918
1.99798
1.84965
1.70541
1.56551
1.43075
1.30187
1.17987
1.06548
0.959664
0.863721
0.778714
0.704705
0.641044
0.586323
0.539028
0.498232
0.463039
0.432279
0.405039
0.380995
0.359691
0.340766
0.324026
0.309267
0.296351
0.285082
0.275354
0.267202
0.260443
0.254989
0.250363
0.246245
0.242789
0.239416
0.236277
0.233602
0.230924
0.2284
0.226217
0.223862
0.221233
0.219115
0.217494
0.21771
0.220016
0.222426
0.221454
0.220282
0.219814
0.219884
0.219523
0.21774
0.215652
0.214015
0.214511
0.215576
6.09981
6.20896
6.38494
6.56579
6.77302
6.9879
7.2259
7.48597
7.79952
8.04978
8.21827
8.36476
8.50897
8.62503
8.71115
8.76848
8.79733
8.79939
8.77795
8.736
8.67557
8.59917
8.5089
8.4086
8.30362
8.19717
8.09092
7.98659
7.88408
7.78477
7.68811
7.59546
7.50647
7.42129
7.33879
7.25785
7.17769
7.09757
7.01517
6.93339
6.85047
6.76613
6.67879
6.58754
6.49116
6.38947
6.28275
6.17138
6.05565
5.93628
5.81355
5.68764
5.55858
5.42633
5.2909
5.15235
5.01072
4.86599
4.71764
4.56565
4.41043
4.25228
4.09159
3.92881
3.7641
3.59739
3.42851
3.25803
3.08658
2.91899
2.75449
2.59417
2.43876
2.28871
2.14466
2.00655
1.87181
1.74355
1.6218
1.50586
1.39538
1.29009
1.18997
1.09579
1.00817
0.927859
0.854778
0.788117
0.727083
0.671391
0.620785
0.575192
0.534599
0.498441
0.466562
0.438609
0.413922
0.391905
0.372809
0.355851