/*--------------------------------*- C++ -*----------------------------------*\
| =========                 |                                                 |
| \\      /  F ield         | OpenFOAM: The Open Source CFD Toolbox           |
|  \\    /   O peration     | Version:  2112                                  |
|   \\  /    A nd           | Website:  www.openfoam.com                      |
|    \\/     M anipulation  |                                                 |
\*---------------------------------------------------------------------------*/
FoamFile
{
    version     2.0;
    format      ascii;
    arch        "LSB;label=32;scalar=64";
    class       volScalarField;
    location    "0.00792";
    object      k;
}
// * * * * * * * * * * * * * * * * * * * * * * * * * * * * * * * * * * * * * //

dimensions      [0 2 -2 0 0 0 0];

internalField   nonuniform List<scalar> 
13875
(
812.096
3462.65
3540.34
3539.27
3541.3
3540.16
3541.68
3542.16
3540.09
3539.37
3541.1
3541.57
3540.92
3540.13
3540.44
3541.18
3541.89
3541.16
3540.75
3540.23
3541.16
3539.02
3540.12
3462.04
820.323
881.793
2936.63
3013.02
3000.67
3001.01
2998.4
2997.11
2998.34
2998.18
2997.29
2997.4
2998.5
2996.65
2996.31
2996.16
2998.5
2996.22
2997.08
2996.98
2998.6
3000.45
2999.28
3011.66
2934.63
894.287
993.352
2710.84
2777.46
2755.4
2758.67
2755.1
2745.76
2744.17
2743.99
2743.56
2742.51
2744.47
2751.48
2752.09
2750.85
2744.63
2741.18
2742.67
2745.33
2755.1
2757.66
2753.16
2774.53
2706.84
998.207
1091.04
2533.66
2580.99
2561.56
2566.56
2562.94
2552.08
2550.04
2548.36
2548.02
2547.67
2548.58
2559.31
2559.97
2558.81
2548.64
2547.28
2547.54
2551.17
2562.92
2565.48
2559.39
2579.15
2529.42
1093.84
1172.08
2380.43
2413.16
2392.88
2397.89
2394.11
2383.22
2381.46
2379.86
2379.66
2379.54
2379.61
2390.29
2391.39
2389.86
2379.72
2379.14
2379.04
2382.35
2393.92
2396.77
2391.17
2410.46
2375.36
1177.46
1240.96
2237.06
2270.89
2244.88
2251.04
2245.86
2233.91
2231.95
2230.73
2230.7
2230.8
2230.14
2240.83
2242.31
2240.49
2230.17
2230.44
2229.93
2233.09
2245.67
2249.94
2243.73
2267.86
2247.22
1247.37
1320.93
2121.72
2158.28
2120.24
2122.95
2115.91
2102.31
2099.63
2098.14
2098.36
2098.76
2097.32
2108.08
2109.72
2107.54
2097.2
2098.5
2097.7
2101.54
2115.49
2121.67
2119.76
2154.02
2095.66
1323.47
1409.71
2000.61
2073.46
2019.55
2016.13
2003.07
1986.58
1982.17
1980.3
1980.63
1981.45
1979.02
1989.94
1991.93
1989.43
1978.76
1981.36
1980.56
1985.43
2002.15
2013.93
2017.96
2068.27
1992.84
1420.28
1691.36
2029.33
2021.89
1944.27
1924.89
1905.62
1885.54
1878.75
1875.93
1876.56
1877.84
1874.66
1885.64
1888.02
1885.37
1874.55
1878.01
1877.21
1883.32
1903.8
1922.37
1942.17
2017.78
2033.5
1716.46
2509.12
2285.32
2018.01
1901.12
1859.36
1827.6
1804.28
1796.07
1792.46
1793.06
1794.23
1790.69
1801.27
1804
1801.45
1791.81
1794.84
1795.08
1801.32
1824.63
1855.56
1891.45
2011.33
2266.1
2529.46
3877.35
3027.5
2153.8
1916.3
1815.8
1773.77
1746.62
1734.19
1729.98
1729.99
1730.56
1726.95
1736.66
1739.62
1737.99
1730.93
1733.1
1735.07
1744.92
1768.31
1813.24
1907.1
2129.42
2936.18
3858.47
5187.04
6462.32
2854.34
1995.56
1855.33
1757.97
1713.12
1695.4
1688.78
1687.43
1686.86
1683.72
1691.74
1694.9
1694.74
1690.74
1692.8
1697.86
1712.09
1757.59
1846.69
1973.49
2788.88
6313.59
5119.95
5058.9
7644.03
7049.43
3329.92
2042.52
1797.07
1741.03
1699.9
1684.25
1678.07
1674.76
1671.51
1677.29
1680.66
1682.53
1682.91
1689.85
1706.36
1746.32
1804.66
2088.76
3230.32
6760.96
7645.91
5009.55
4829.29
6374.29
7184.27
8722.83
5149.51
2325.75
1898.08
1782.05
1747.7
1743.9
1740.85
1738.12
1742.87
1746.18
1749.16
1752.24
1757.82
1791.87
1939.47
2478.11
5620.55
8147.38
6955.42
6329.56
4832.42
4606.49
5523.49
6046.91
6983.29
6818.65
6703.32
3425.44
2377.66
2130.74
2037.18
1996.96
1982.26
1982.56
1987.25
1998.71
2030.12
2119.4
2385.68
3604.22
6875.56
6832.35
6701.99
5964.69
5486.97
4681.14
4295.65
4805.81
5114.69
5870.58
6052.58
6565.08
5576.99
5161.38
4845.15
4198.75
4275.3
4327.35
4371.01
4358.94
4297.71
4196.35
4741.65
5446.92
5655.18
6641.66
6005.32
5703.86
5070.62
4778.77
4364.95
3730.68
4044.59
4338.53
5060.95
5581.35
6495.86
7309.07
7576.51
6712.12
6253.39
6508.29
6743.42
6877.59
6827.05
6586.46
6568.81
6709.04
7561.52
7361.47
6488.35
5451.01
4900.66
4227.75
3962.61
3720.57
3065.43
3407.62
3942.7
4848.09
5511.45
6102.25
7061.03
7794.31
6533.45
5465.95
5206.02
5232.53
5304.46
5270.63
5270.6
5785.98
6510.51
7448.96
7053.28
6208.2
5537.82
4807.72
3862.93
3346.68
3027.54
2636.78
3159.68
3834.05
5054.84
5989.92
5776.02
6053.63
6774.72
6144.19
5172.22
4684.32
4547.49
4536.51
4591.2
4779.67
5310.64
5957.03
6477.59
6075.14
5914.72
6232
5124.22
3844.05
3149.87
2640.12
2512.56
3375.08
4066.85
5236.85
5800.13
5308.02
5231.25
5723.29
5581.01
4956.97
4413.69
4086.78
3976.82
4156.53
4541.05
5024.03
5362.14
5490.43
5262.35
5447
5930.79
5208.82
4096.73
3409.87
2513.71
5034.16
7319.76
5998.63
4840.84
5027.16
4656.69
4564.06
4972.85
5045.44
4625.7
4078.97
3652.66
3501.78
3759.8
4235.59
4667.37
4832.62
4789.72
4602.61
4779.27
5129.55
4944.31
6443.22
7886.8
5804.68
11500.6
22710.8
7446.32
4230.73
4324.78
4094.1
4040.68
4398.99
4548.91
4246.25
3720.94
3257.31
3090.56
3372.18
3872.06
4264.28
4347.47
4257.29
4071.31
4191.12
4395.87
4344.05
8011.55
22695
12545.3
13111.2
17494.4
6523.09
3768.97
3782.12
3639.51
3602.23
3930.06
4096.42
3853.48
3361.29
2906.69
2734.86
3004.77
3492.13
3859.52
3904.93
3812.63
3626.76
3703.76
3825.21
3850.86
6648.4
17615.8
13066.7
12346.8
17461.5
5526.65
3423.79
3342.93
3244.62
3228.59
3519.66
3686.07
3473.65
3010.64
2586.79
2433.48
2685.01
3143.44
3489.24
3513.01
3414.39
3255.27
3305.37
3390.37
3507.42
5708.15
18551.6
12479.7
11934.4
17187.9
4935.27
3157.23
3009.72
2919.33
2923.52
3171.75
3321.39
3130.77
2707.39
2318.36
2180.13
2408.93
2835.52
3154.17
3169.98
3074.37
2942.81
2974.72
3062.22
3240.46
5163.1
18704.5
12177.1
11662.1
17270.6
4523.23
2913.56
2742.97
2647.26
2671.14
2875.71
3000.64
2826.93
2445.22
2091.21
1965.17
2170.15
2557.23
2847.84
2867.11
2780.38
2672.63
2688.58
2792.88
2981.87
4707.25
18523.5
12038.1
11631
16237
4095.2
2695.35
2526.94
2422.75
2455.25
2618.51
2710.18
2546.41
2208.48
1895.36
1783.47
1970.76
2322.16
2583.1
2608.08
2534.32
2446.39
2456.7
2581.36
2769.06
4325.56
17671.6
11930.1
11498.4
15593.5
3814.84
2516.47
2351.07
2240.39
2271.52
2399.72
2463.42
2309.34
2009.83
1729.93
1627.71
1796.14
2110.48
2345.74
2379.92
2321.35
2253.41
2265.44
2398.38
2579.67
4037.28
17089.7
11830.9
11223.8
15292.2
3610.77
2363.21
2202.59
2095.9
2113.67
2209.21
2247.73
2103.23
1839.21
1588.55
1494.05
1644.29
1922.66
2132.65
2177.71
2136.5
2086.85
2106.35
2237.87
2415.82
3758.98
15858.1
11726.1
11022
14339.1
3431.33
2234.67
2065.74
1970.58
1978.9
2040.63
2052.94
1914.56
1682.53
1462.62
1378.21
1516.8
1768.17
1955.92
2005.45
1978.59
1948.06
1974.16
2096.19
2284.32
3586.95
15160.7
11489.9
10708.4
13200
3283.19
2133.73
1947.27
1858.82
1861.02
1895.44
1887.78
1757.16
1552.6
1355.77
1278
1402.79
1626.6
1794.01
1851.28
1840.77
1828.34
1855.8
1964.53
2173.16
3398.73
13883.6
11251.7
10415.7
12499.9
3178.46
2058.14
1840.66
1756.38
1755.42
1769.86
1747.05
1623.07
1439.99
1262.42
1190.51
1302.68
1504.11
1656.21
1717.66
1720.71
1721.6
1748.03
1849.81
2086.18
3248.11
12762.3
10938.4
10166.6
11384
3053.86
2000.85
1749.29
1666.12
1657.02
1656.07
1617.74
1499.96
1337.51
1179.06
1114.23
1217.78
1400.54
1537.4
1601.74
1616.34
1624.21
1654.23
1754.07
2020.59
3135.88
12027
10605.4
9888.42
10556.5
2936.32
1959.71
1676.64
1585.82
1564.94
1556.16
1508.41
1396.95
1250.38
1106.44
1046.65
1140.17
1306.19
1431.53
1497.57
1522.56
1534.06
1570.17
1674.79
1967.06
3023.56
11116.6
10279.8
9627.64
9969.1
2814.67
1925.38
1628.69
1513.07
1483.25
1466.24
1411.79
1305.9
1173.75
1042.38
987.364
1072.34
1222.99
1337.77
1405.11
1436.28
1453.34
1496.61
1619.68
1929.59
2892.35
10357.9
9993.27
9371.28
9325.07
2694
1895.89
1595.41
1450.12
1407.88
1381.38
1324.47
1224.05
1103.2
984.056
934.114
1012.78
1152.41
1258.17
1323.79
1357.13
1381.78
1432.69
1582.19
1900.9
2781.84
9811.25
9735.07
9133.08
8877.71
2590.72
1895.97
1576.9
1398.93
1342.84
1306.23
1246.43
1152.51
1042.6
933.129
886.92
958.446
1086.44
1184.11
1248.38
1285.04
1317.37
1378.52
1557.21
1889.61
2653.19
9148.56
9483.56
8886.82
8634.43
2492.47
1885.69
1570.77
1363.25
1283.19
1238.39
1177.26
1089.88
988.457
887.153
844.36
909.666
1028.31
1118.76
1180.18
1220.62
1258.74
1340.45
1546.97
1881.36
2530.66
8732.75
9270.32
8621.24
8244.1
2374.54
1839.35
1579.08
1340.73
1233.09
1177.62
1113.17
1030.99
938.081
845.32
806.315
867.21
977.279
1060.61
1119.99
1163.59
1208.76
1313.84
1551.05
1849.57
2423.63
8590.98
9025.99
8379.01
8012.11
2267.09
1787.58
1608.02
1329.9
1194.21
1125.01
1057.96
980.186
893.88
807.61
771.505
827.254
929.722
1007.27
1064.85
1113.74
1170.5
1299.39
1558.9
1792.08
2323.76
8442.24
8720.8
8185.69
7832.18
2199.39
1732.4
1634.52
1334.42
1166.72
1082.47
1009.41
934.156
853.753
773.42
740.062
791.428
886.317
959.115
1016.68
1072.02
1144.45
1295.31
1604.52
1740.58
2248.85
8292.53
8467.24
8008.46
7627.51
2114.1
1661.56
1614.25
1347.9
1146.89
1050.4
967.582
892.405
816.262
741.567
711.009
759.016
848.75
917.431
976.123
1040.49
1124.86
1308.33
1618.9
1690.22
2279.81
8062.65
8253.3
7844.67
7462.81
2052.07
1591.28
1569.77
1394.46
1139.24
1026.52
934.444
856.417
783.214
713.048
684.56
728.804
812.854
879.031
941.47
1017.66
1114.11
1335.63
1580
1617.63
2180.42
7839.02
8067.49
7709.38
7295.81
2089.77
1529.82
1511.93
1433.84
1149.38
1008.08
910.192
826.361
753.927
686.847
660.043
701.096
781.023
846.387
914.995
1000.53
1121.9
1401.42
1525.96
1547.07
2131.13
7685.83
7911.85
7575.33
7149.07
2027.19
1467.37
1445.08
1423.75
1184.22
998.347
889.789
802.12
728.047
663.116
637.95
676.829
754.265
820.86
894.722
991.204
1162.82
1425.9
1463.77
1493.57
2173.01
7529.17
7783.05
7442.51
6986.52
2055.65
1422.06
1378.42
1377.12
1260.45
1009.16
875.946
785.295
708.924
643.363
618.569
655.795
732.959
801.925
879.101
996.885
1235.28
1383.66
1398.72
1439.77
2162.74
7366.94
7668.49
7309.49
6839.87
2099.17
1392.55
1321.33
1325.12
1289.35
1063.54
869.523
770.339
694.587
628.794
601.956
640.081
717.069
786.422
869.518
1042.69
1275.74
1332.59
1338.96
1405.05
2181.85
7173.85
7534.14
7105.81
6659.92
2082.96
1360.87
1271.97
1271.25
1249.3
1147.14
887.723
758.595
682.204
617.562
589.649
628.439
704.569
774.721
884.932
1126.47
1246.48
1276.54
1290.17
1393.12
2216.02
6932.88
7318.4
6842.52
6421.1
2082.76
1341.15
1230.64
1216.44
1205.36
1185.37
950.486
757.725
672.685
608.41
581.098
618.82
693.638
770.419
935.582
1182.56
1204.83
1218.76
1245.04
1373.59
2182.4
6667.87
7045.83
6238.77
5998.25
2066.47
1324.28
1194.72
1168.64
1158.18
1150.47
1040.05
790.182
669.216
600.542
573.43
610.111
687.979
793.437
1028.88
1163.63
1160.26
1167.6
1204.44
1349.46
2134.81
6226.96
6424.34
2412.84
3247.14
3110.4
2667.22
2217.54
1931.21
1859.54
1897.49
2067.25
2369.18
2623.68
2704.25
2377.1
1946.58
1604.04
1377.55
1234.79
1173.09
1154.65
1164.58
1169.35
1151.63
1121.46
1082.54
1038.67
984.958
925.366
841.838
738.099
613.61
2674.41
3327.52
3114.78
2604.98
2156.42
1912.4
1879.46
1923.24
2095.42
2386.06
2590.42
2620.55
2232.58
1804.93
1481.73
1290.62
1175.32
1130.47
1122.79
1129.76
1124.99
1103.89
1072.1
1032.75
989.513
937.881
880.418
801.087
704.758
599.222
2847.53
3479.26
3175.02
2597.43
2128.86
1906.05
1890.69
1937.71
2076.66
2280.73
2404.89
2338.44
1968.88
1605.94
1337.07
1185.87
1106.91
1075.83
1076.49
1078.94
1068.83
1047.09
1016.76
978.794
937.469
888.636
834.362
760.675
672.065
585.502
3045.07
3704.42
3279.1
2637.98
2155.09
1971.09
1962.07
2010.53
2103.09
2212.25
2238.34
2099.37
1764.7
1462.74
1244.72
1126.25
1063.81
1040.14
1039.52
1036.97
1023.14
999.174
968.15
931.465
891.743
845.631
795.174
726.768
644.562
573.834
3278.1
3961.55
3417.79
2739.49
2257.19
2119.87
2104.92
2123.01
2163.72
2186.73
2125.05
1937.45
1644.67
1389.2
1206.32
1099.17
1042.67
1018.67
1012.2
1002.06
983.112
957.038
925.741
890.236
851.826
808.28
760.856
696.393
618.568
561.758
3505.58
4254.89
3597.65
2906.31
2452.41
2317.27
2284.8
2270.14
2258.39
2210.57
2080.95
1876.08
1614.22
1384.42
1213.6
1102.72
1039.53
1008.9
992.448
973.249
949.158
920.941
889.412
854.672
817.643
776.054
730.002
668.068
594.332
548.485
3754.84
4597.45
3883.1
3183.86
2766.18
2637.56
2587.28
2531.54
2465.04
2362.53
2192.11
1966.67
1703.1
1463.91
1269.07
1133.63
1052.32
1007.81
976.91
948.474
919.363
889.148
857.343
823.361
787.578
747.169
701.566
641.72
571.927
535.88
4037.41
4972.26
4269.01
3591.34
3198.02
3097.86
3060.18
2989.94
2884.32
2727.05
2498.18
2216.86
1907.32
1614.04
1368.84
1190.66
1080.01
1013.27
965.502
927.738
893.839
861.648
829.522
796.265
761.384
721.52
676.157
618.299
552.64
524.728
4356.65
5439.33
4817.03
4190.39
3800.62
3719.02
3692.14
3615.98
3476.21
3251.6
2949.54
2596.62
2209.14
1830.21
1510.79
1274.25
1122.01
1024.4
958.684
911.117
872.396
838.018
805.373
772.679
738.17
698.504
653.523
597.58
535.552
514.763
4724.7
6025.61
5546.91
4989.88
4587.97
4521.46
4507.78
4425.24
4245.72
3954.37
3565.74
3109.13
2607.78
2113.06
1695.14
1383.41
1176.55
1042.14
956.763
898.779
854.796
817.92
784.533
752.135
717.824
678.415
633.887
579.5
520.545
505.784
5149.5
6735.77
6487.86
6047.01
5584.62
5514.63
5515.38
5425.04
5201.46
4824.71
4321.48
3732.56
3083.09
2456.92
1920.21
1516.07
1241.74
1067.09
959.61
890.106
840.401
800.711
766.329
733.923
699.816
660.603
616.474
563.477
506.997
497.403
5621.21
7592.04
7663.64
7334.22
6755.55
6649.21
6646.79
6529.66
6241.23
5763.73
5132.16
4397.45
3600.99
2839.75
2176.88
1667.66
1318.23
1098.5
966.429
884.526
828.777
786.125
750.495
717.738
683.7
644.568
600.7
548.874
494.206
489.115
6130.52
8604.33
9060.91
8792.65
8019.35
7812.3
7758.93
7566.85
7177.6
6583.63
5847.18
5004.08
4102.42
3228.62
2449.74
1833.53
1404.65
1135.81
977.015
881.821
819.611
774.128
737.196
703.644
669.117
629.214
584.94
534.19
481.445
481.051
6656.81
9720.03
10528.4
10296.7
9238.35
8838.78
8672.29
8369.24
7871.09
7185.72
6390.08
5495.96
4545.08
3598.49
2728.41
2012.51
1500.21
1180.34
992.43
882.323
813.082
765.012
726.791
692.274
656.656
617.039
573.652
523.552
472.286
475.99
7174.39
10851.9
12003.5
11786.3
10334.8
9676.68
9370.82
8959.11
8366.52
7622.2
6795.31
5882.83
4917.47
3937.01
3007.59
2206.99
1612.99
1235.76
1015.42
887.94
810.686
759.588
720.439
684.201
648.037
608.067
564.541
514.636
464.73
472.045
7662.73
11979.5
13473.1
13223.7
11362.4
10416.5
9975.51
9469.8
8794.59
7999.42
7136.6
6206.33
5240.53
4253.64
3291.33
2426.97
1755.68
1311.64
1050.32
900.52
813.556
757.949
716.736
678.688
641.018
600.742
556.945
507.004
458.179
468.966
8142.18
13185.9
14960.9
14605.7
12379.3
11169.7
10592
10002.6
9253.47
8398.59
7485.74
6527.28
5558.3
4570.41
3591.49
2677.4
1932.3
1413.1
1099.12
920.931
820.48
757.498
712.399
673.02
634.468
593.818
549.772
499.905
452.133
466.201
8611.43
14443.2
16357
15907.4
13442.5
12019
11320.3
10640.4
9816.97
8883.81
7901.57
6900.5
5909.81
4912.7
3920
2969.54
2150.35
1545.08
1164.38
950.084
829.116
757.534
707.761
666.517
627.759
586.855
542.557
492.906
446.186
463.802
8991.34
15697.2
17639.9
17088.9
14559.4
13012.7
12214
11433.3
10522.1
9490.59
8403.41
7345.64
6317.95
5301.77
4291.18
3309.28
2415.01
1710.58
1247.88
984.659
839.55
757.488
703.18
660.228
621.458
580.252
535.788
486.623
440.822
462.073
9360.15
16907.7
18735.7
18134.2
15745.5
14178.7
13300.5
12418.1
11385.8
10233
9016.72
7876.01
6795.96
5748.38
4714.41
3697.98
2723.35
1908.61
1348.95
1025.59
855.182
760.775
701.297
656.088
616.64
574.997
530.635
482.02
436.843
461.367
9880.71
17970.3
19612.2
19037.5
17028.8
15547.7
14595.9
13607.7
12444.4
11130.5
9766.9
8512.1
7354.44
6253.7
5184.35
4114.5
3062.79
2148.33
1483.96
1087.79
882.693
770.442
703.146
654.831
614.202
571.822
527.489
478.687
433.872
461.481
10240.9
19104.1
20371.1
19903.6
18450.7
17147.7
16146.5
15049.8
13732.7
12227.4
10683.4
9277.21
8004.63
6821.14
5689.23
4551.33
3444.99
2440.4
1667.03
1179.03
923.335
787.27
709.334
656.839
613.604
569.805
525.055
475.739
431.551
461.602
10748.8
19478
20752.7
20794.8
20083.5
19039.6
18014.9
16789.6
15289.7
13538.2
11777.8
10170.4
8734.07
7437.13
6206.07
5018.12
3870.28
2791.82
1905.14
1304.99
977.612
809.501
718.832
661.344
614.664
568.61
522.844
472.545
429.197
462.065
10919.8
19988.3
21101.5
22035.2
22106.1
21311.4
20260.6
18865.1
17106.4
15096.2
13057.6
11170.8
9509.19
8070.4
6744.63
5517.41
4335.94
3199
2202.73
1475.06
1053.71
840.823
731.214
665.73
614.877
566.312
518.923
467.796
426.064
462.626
10603.5
19940.2
21757.4
23927.8
24616.9
24024.3
22937.9
21321.3
19282.9
16930
14526.3
12300.4
10376.1
8771.25
7346.09
6060.12
4840.61
3653.61
2559.59
1697.91
1158.38
884.117
746.971
669.949
613.086
561.455
512.984
462.208
422.192
463.652
614.166
738.765
842.262
926.148
985.154
1036.75
1081.3
1121.38
1155.07
1174.43
1174.55
1160.87
1177.11
1242.3
1390.36
1627.76
1977.56
2426.45
2733.93
2674.03
2406.14
2102.61
1939.41
1902.12
1986.08
2298.2
2761.02
3204.2
3323.85
2525.91
599.427
704.734
801.062
880.763
937.617
987.172
1030.61
1070.8
1105.44
1128.67
1136.49
1132.27
1135.67
1184.77
1301.18
1501.77
1837.03
2277.55
2643.09
2629.73
2416.72
2131.32
1969.01
1927.67
1974.22
2236.98
2694.81
3213.54
3422.02
2778.97
585.534
671.66
760.223
834.203
887.996
935.518
976.453
1015.07
1047.57
1071.05
1083.45
1086.33
1082.86
1117.23
1203.95
1362.12
1644.88
2024.15
2378.78
2444.4
2325.18
2126.33
1997.29
1952.11
1974.69
2210.87
2694.52
3293.37
3607.28
2970.62
573.587
644.001
726.218
794.919
844.991
890.572
929.545
966.28
998.905
1024.35
1040.95
1048.37
1049.65
1073.6
1146.32
1277.36
1507.98
1825.4
2153.59
2289.93
2271.03
2172.61
2094.69
2046.38
2055.22
2250.75
2755.97
3426.48
3862.88
3180.47
560.946
617.711
695.428
760.498
807.682
850.684
888.184
923.324
955.746
983.119
1004.58
1019.65
1029.71
1054.37
1122.18
1244.26
1439.96
1712.29
2006.73
2195.18
2261.19
2247.2
2214.21
2196.46
2221.88
2371.39
2882.27
3586.98
4141.3
3423.39
547.508
592.984
666.819
729.454
775.281
816.261
852.261
886.469
918.959
948.433
974.793
998.441
1020.88
1055.4
1131.55
1261.21
1448.86
1693.19
1962.01
2173.17
2307.03
2361.58
2380.47
2404.06
2442.82
2587.32
3075.68
3789.12
4453.96
3667.67
534.203
570.2
640.171
700.603
746.17
786.318
821.052
854.462
886.872
918.376
949.451
982.232
1020.67
1073.05
1170.57
1328.61
1544.22
1804.3
2085.1
2325
2503.52
2615.47
2687.93
2746.99
2797.62
2932.67
3380.88
4103.61
4816.42
3922.35
522.785
550.749
616.463
674.992
720.559
760.434
794.456
827.295
859.632
893.007
928.841
971.233
1026.76
1106.59
1237.84
1443.52
1719.64
2041.25
2374.36
2672.51
2918.44
3088.45
3197.77
3265.16
3299.84
3408.11
3832.1
4524.88
5216.53
4210.72
512.636
533.713
595.664
652.299
697.783
737.615
771.533
804.002
836.662
872.003
912.848
965.296
1039.45
1153.68
1332.47
1604.39
1965.21
2381.62
2797.54
3172.79
3492.42
3729.32
3873.77
3945.33
3970.2
4065.17
4491.52
5118.69
5720.45
4540.49
503.554
518.835
577.727
632.744
678.096
717.837
751.887
784.188
817.647
855.161
901.325
964.609
1059.87
1212.19
1452.25
1808.77
2279.24
2821.36
3362.57
3846.39
4257.71
4561.6
4744.23
4820.53
4830.13
4915.31
5365.4
5894.82
6335.61
4932.63
495.24
505.478
561.971
615.503
660.679
700.546
734.683
767.149
801.762
841.735
893.666
968.837
1087.18
1281.87
1593.5
2049.71
2649.51
3332.73
4033.01
4655.35
5184.72
5574.79
5802.83
5887.6
5885.34
5983.18
6503.23
6889.68
7083.58
5379.34
487.313
493.002
547.585
599.763
644.824
685.123
719.435
752.389
788.348
831.141
889.293
977.349
1120.95
1362.12
1750.32
2314.12
3041.44
3866.49
4719.35
5493.46
6153.42
6650.25
6948.2
7065.74
7072.73
7223.98
7876.01
8117.95
7983.94
5872.71
478.669
480.161
532.881
583.89
628.507
670.545
705.737
739.617
776.981
823.034
887.914
989.668
1160.29
1451.05
1917.76
2585.95
3423.26
4354.75
5306.82
6191.61
6959.3
7580.38
7989.58
8194.45
8266.5
8544.19
9403.25
9557.71
9037.25
6400.35
473.416
470.865
522.333
573.119
617.227
657.829
694.24
729.367
767.792
817.557
889.935
1006.7
1206.59
1549.21
2092.89
2851.88
3767.65
4757.23
5747.43
6679.81
7512.42
8231.86
8762.25
9093.29
9298.57
9798.48
10960.2
11044.5
10183.8
6940.86
469.228
463.256
513.717
564.6
608.696
649.278
685.818
722.264
762.458
815.383
896.494
1030.88
1263.53
1662.17
2279.35
3108.46
4068.6
5077.85
6072.91
7022.02
7891.53
8677.32
9313.23
9766.46
10131.6
10924.5
12491
12526.1
11335.5
7469.01
465.964
456.657
506.369
557.46
602.048
642.967
680.943
718.829
761.458
818.821
910.203
1065.8
1337.3
1798.49
2488.94
3369.89
4346.53
5350.69
6341.01
7307.26
8218.33
9063.38
9791.65
10353.8
10874.5
11984
13966.4
14011.7
12486.4
7959.91
463.24
450.724
499.666
550.824
596.123
637.893
677.596
717.405
763.664
827.094
931.411
1114.47
1434.88
1965.24
2726.4
3646.55
4628.79
5625.94
6616.8
7613.23
8582.95
9498.05
10309.2
10966.7
11641.3
13039.7
15378.3
15516.3
13726.2
8443.61
460.886
445.244
493.23
544.352
590.215
632.512
672.906
715.131
765.616
839.798
962.03
1180.05
1562.14
2171.9
2999.36
3950.4
4941.24
5944.46
6956.08
7997.72
9043.98
10047.9
10943.9
11704
12512.5
14134.1
16695.3
16921.4
14996.1
8911.69
459.331
440.466
487.422
538.264
584.127
626.569
666.997
710.941
766.636
852.036
1000.25
1265.65
1725.58
2426.39
3321.92
4300.46
5306.39
6328.05
7377.3
8478.55
9634.01
10748.5
11744.3
12615.1
13535.3
15276.2
17878.1
18209.8
16253
9283.73
458.862
436.885
482.971
533.318
578.686
621.51
662.43
708.264
768.633
864.947
1039.59
1363.96
1920.79
2729.92
3696.69
4704.95
5732.4
6784.82
7886.74
9073.96
10362.3
11612.9
12742.1
13725.6
14735.7
16483.7
18920.4
19307.4
17457.2
9651.06
459.248
434.333
479.97
530.172
575.3
618.985
661.149
710.187
777.171
888.498
1094.16
1485.43
2145.37
3054.81
4093.36
5150.55
6212.23
7317.04
8498.57
9804.34
11247.3
12674.3
13949
15052.4
16144.4
17787.1
19815.6
20182.7
18500.2
10187.7
459.923
432.614
477.816
528.281
573.572
618.6
663.323
716.63
793.606
926.501
1177.22
1653.66
2417.08
3410.22
4500.71
5622.05
6745.08
7934.72
9236.49
10700.5
12337.2
13972.2
15418.3
16642
17785.1
19231.3
20675
20917.8
19585.8
10526
461.215
431.021
475.688
526.728
572.927
619.565
667.002
726.221
815.539
978.482
1296.94
1878.96
2748.62
3808.47
4937.27
6106.95
7326.64
8633.32
10105.3
11780
13648.1
15540
17195.5
18559.1
19717.9
20879.1
21552.2
21275.1
19945.5
11021.7
462.466
428.792
472.467
524.123
572.027
620.615
671.742
737.579
845.339
1051.17
1458.15
2163.57
3136.91
4252.63
5413.99
6623.71
7939.07
9390.4
11094
13058.4
15219.2
17376.3
19308.4
20857.7
22022.2
22903.3
22768.8
21608.7
20403
11169.6
464.029
425.961
468.186
519.973
569.2
620.73
676.847
753.75
887.708
1151.65
1668.08
2504.37
3572.94
4737.12
5934.95
7204.25
8623.23
10245.2
12214.7
14529
17075
19593.8
21817.8
23583.9
24759
25402.6
24594.3
22226.4
20343.7
10860.9
5201.75
4842.44
4413.47
4055.61
3712.96
3466.71
3288.73
3185.56
3067.98
3034.71
3104.79
3283.09
3589.97
4046.18
4651.04
5362.13
6125.76
6899.61
7653.6
8357.18
8992.13
9549.33
10033.4
10445.1
10786.9
11105.6
11376.4
11592.4
11770.3
11914.9
12019.9
12089.7
12126.1
12128.8
12096.8
12028.7
11924.1
11780.3
11597.7
11375.2
11112.2
10808.8
10464.3
10079.1
9654.39
9192.4
8699.51
8182.93
7649.77
7107.45
6562.05
6020.05
5489.18
4975.6
4484.53
4020.53
3586.46
3183.98
2814.22
2476.79
2171
1895.93
1652.94
1453.06
1287.57
1148.04
1029.65
930.07
847.631
780.424
723.008
671.607
626.592
587.809
554.865
527.239
504.265
485.277
469.643
456.775
446.159
437.487
430.559
425.178
421.131
418.164
416.07
414.758
414.184
414.227
414.77
415.766
417.216
419.334
422.121
425.57
429.769
434.305
439.099
444.226
449.801
454.845
461.06
466.603
471.725
476.671
480.888
484.758
488.317
491.114
493.632
495.966
495.879
495.882
494.554
493.031
491.534
488.893
485.201
480.391
474.73
470.55
467.407
466.193
465.406
15444.1
15048.2
14169.4
13290.9
12435.5
11714.9
11189.8
10919.8
10787.9
10816.2
11201.6
11988
13174.2
14756.4
16670.1
18785.6
20963.6
23089.7
25086.4
26902.8
28510.2
29906.7
31105.1
32120.1
32974.9
33692.8
34274.1
34706.9
35035.1
35273.2
35421
35494.2
35493.9
35421.7
35276.5
35055.8
34756.6
34375.3
33910.8
33360.8
32722.9
31995.1
31177.6
30271.4
29280.9
28211.7
27079.2
25896.7
24677
23434.4
22182
20934.6
19705.4
18504.8
17336.6
16203
15102.6
14033.9
12995.5
11980.4
10985.4
10009.6
9047.23
8081.48
7126.93
6211.63
5360.29
4591.71
3918.93
3344.2
2856.01
2442.82
2095.35
1805.33
1564.51
1365.09
1200.86
1066.27
956.136
866.013
792.162
731.374
681.048
639.296
604.622
575.682
551.566
531.184
513.165
497.106
482.906
470.336
459.294
449.723
441.567
434.74
429.264
424.84
421.307
418.491
416.297
414.439
413.432
412.497
411.394
410.26
409.227
408.669
407.679
405.973
403.784
404.09
409.152
414.257
415.094
416.664
418.108
420.591
423.708
424.448
422.115
419.164
418.495
420.351
423.121
25680.5
25426.9
24592.2
23690.2
22777.8
22052.2
21615.8
21564.8
21961.3
22550
23634.8
25305.3
27466.1
30021.9
32851.7
35794.2
38699.2
41451.8
43977.7
46236
48213.5
49918
51367.6
52585.1
53600.7
54443.4
55118.1
55627.6
56019.1
56306.8
56505.7
56615.8
56649.3
56607
56487.7
56287.6
56000.3
55619.8
55140.7
54560.7
53874
53078.2
52171
51152.3
50030.1
48808.9
47496.3
46103.1
44642.1
43128.4
41576.2
39999.8
38412.8
36825
35242.4
33669.9
32110.8
30564.9
29026.5
27489.3
25951.4
24408.6
22858.5
21300
19736.7
18174.7
16617.8
15067.8
13524.8
11995
10512.7
9115.83
7830.46
6676.79
5664.16
4791.74
4050.91
3428.84
2911.31
2484.79
2136.73
1854.89
1626.9
1441.33
1289.48
1164.5
1060.4
972.684
898.791
836.198
782.977
737.566
698.754
665.382
636.822
612.386
591.693
574.237
559.652
547.465
536.882
527.536
518.739
510.464
502.976
495.815
488.684
482.068
475.45
468.736
462.514
458.862
461.564
467.079
468.403
465.607
463.906
464.252
466.707
467.388
464.385
461.106
459.837
461.731
464.872
38492.7
38370.7
37751.9
37063.8
36440.4
36112.8
36214.1
36851.1
38143.4
39856.6
42043.2
44745.3
47895.1
51310.4
54828.9
58291.3
61569.6
64577.7
67270.7
69630.5
71658.7
73374.5
74806.2
75995.5
76987.2
77810.5
78479
79019.9
79468
79842.4
80148.6
80384.3
80567.3
80694.1
80755.8
80743.7
80648.6
80464.2
80176.9
79793.6
79320.1
78750.8
78067.7
77260.9
76321.4
75252
74062.8
72766.8
71378.3
69917.3
68396
66826.7
65218.4
63576.1
61901.2
60194.8
58457.3
56682.9
54857.8
52970.5
51011.3
48967.5
46828
44588.1
42246.2
39805.8
37275.1
34673.3
32014.3
29380.3
26801.9
24287.8
21858.3
19540.5
17351.3
15309.5
13422.7
11708.9
10173.4
8812.31
7617.03
6574.53
5672.05
4897.94
4238.1
3678.83
3206.51
2806.84
2468.27
2181.49
1938.28
1732.11
1558.09
1411.59
1288.26
1184.17
1096.08
1020.58
955.855
899.702
849.968
805.218
764.842
728.311
694.906
664.514
637.042
612.914
590.854
571.267
554.153
541.664
538.518
541.88
541.924
535.954
529.542
525.225
524.546
523.966
519.45
514.437
511.929
512.96
516.358
53557.3
53597.8
53326.6
53075.6
53066.5
53504.9
54526.4
56200.6
58603
61551.1
64888.6
68628.1
72624.6
76671
80616
84328.1
87709.6
90714.3
93332.4
95577.4
97480.5
99084.6
100440
101588
102566
103408
104150
104827
105465
106079
106664
107214
107729
108202
108621
108976
109258
109462
109608
109666
109596
109375
109004
108483
107814
107005
106066
105010
103839
102591
101276
99896.6
98457.9
96958.1
95390.8
93751.8
92030
90221
88298
86240.4
84025.1
81630
79042.5
76261.5
73287.3
70118.8
66762
63226.7
59527.4
55683
51736.9
47737.6
43757.2
39923.3
36262.9
32779.5
29507.1
26468.2
23658.2
21077.6
18726.9
16597.7
14678.9
12959.2
11428.1
10073
8879.7
7832.41
6912.41
6103.97
5395.67
4779.25
4245.56
3783.35
3384.08
3040.69
2745.12
2487.57
2260.24
2057.45
1874.6
1707.21
1552.21
1406.91
1272.84
1151.88
1044.15
951.114
870.483
802.496
745.836
700.202
670.226
654.896
641.605
624.26
608.754
596.974
590.53
586.805
578.873
570.037
564.829
563.725
565.897
69893.7
70170.8
70384
70813.7
71675.6
73147.7
75304.1
78145.7
81661
85724.1
89968.8
94435.9
98987.8
103464
107620
111349
114643
117496
119935
122008
123771
125288
126620
127822
128942
130017
131076
132139
133214
134294
135369
136431
137462
138444
139362
140212
141023
141748
142317
142737
143013
143144
143126
142960
142646
142192
141609
140909
140104
139211
138240
137193
136065
134847
133523
132084
130444
128667
126697
124503
122058
119336
116325
113025
109449
105590
101453
97045.9
92398.9
87568.6
82583.7
77475
72269.6
66980.6
61712.6
56680.5
51915.3
47405.9
43145.2
39137.8
35397.3
31928.5
28726.6
25784.8
23095.2
20651.4
18443.1
16453.6
14664.2
13061.1
11637.2
10379.7
9273.51
8302.02
7452.44
6709.79
6058.43
5486.24
4982.05
4534.78
4133.32
3765.42
3419.51
3085.79
2763.07
2457.03
2171.51
1907.73
1668.38
1457.5
1277.58
1125.68
1007.23
922.279
853.985
797.202
748.724
710.736
684.908
667.462
651.766
636.245
625.999
621.742
620.768
86555.8
87170.5
88027.5
89344.4
91274.9
93934.8
97298.5
101300
105839
110613
115484
120371
125158
129702
133817
137416
140502
143135
145386
147333
149061
150646
152156
153645
155157
156720
158344
160028
161755
163501
165234
166926
168552
170097
171572
172977
174211
175290
176234
177053
177750
178320
178755
179046
179191
179194
179065
178811
178446
177980
177420
176762
175993
175095
174036
172783
171292
169553
167539
165218
162562
159547
156161
152324
148187
143710
138886
133714
128220
122504
116590
110513
104321
98059.5
91760.6
85398.1
79105.8
73112.3
67381.1
61938.1
56785.5
51925.9
47358.1
43088
39119.7
35445.1
32050.1
28924.1
26053.3
23427.2
21039.2
18878.8
16936
15194.6
13639.2
12250.5
11016.8
9923.04
8957.08
8103
7347.31
6675.68
6072.25
5520.84
5006.23
4520.24
4061.37
3621.16
3197.09
2797.18
2434.35
2103.08
1811.68
1578.96
1382.06
1208.51
1059.64
948.558
868.565
811.902
770.888
734.618
708.169
692.744
683.617
102856
103914
105565
107917
111037
114900
119409
124419
129752
135004
140204
145243
150003
154336
158131
161412
164212
166622
168750
170697
172558
174413
176324
178335
180471
182729
185094
187531
189999
192453
194850
197149
199332
201410
203349
205090
206688
208166
209544
210831
212023
213106
214059
214865
215516
216012
216355
216551
216615
216564
216405
216129
215713
215120
214305
213228
211855
210162
208120
205695
202866
199615
195924
191786
187243
182305
176965
171220
165015
158558
151900
145026
137980
130851
123683
116469
109210
101900
94730.9
87905.4
81376.9
75170
69293.6
63738.3
58506.3
53598.3
49009.6
44730.5
40747.1
37047.9
33621.6
30454.2