/*--------------------------------*- C++ -*----------------------------------*\
| =========                 |                                                 |
| \\      /  F ield         | OpenFOAM: The Open Source CFD Toolbox           |
|  \\    /   O peration     | Version:  2112                                  |
|   \\  /    A nd           | Website:  www.openfoam.com                      |
|    \\/     M anipulation  |                                                 |
\*---------------------------------------------------------------------------*/
FoamFile
{
    version     2.0;
    format      ascii;
    arch        "LSB;label=32;scalar=64";
    class       volScalarField;
    location    "0.00926";
    object      T;
}
// * * * * * * * * * * * * * * * * * * * * * * * * * * * * * * * * * * * * * //

dimensions      [0 0 0 1 0 0 0];

internalField   nonuniform List<scalar> 
13875
(
1412
1535.57
1482.38
1487.53
1482.01
1483.91
1484.6
1483.43
1484.63
1484.64
1484.07
1484.17
1483.51
1483.91
1483.85
1483.86
1483.44
1484.72
1484.87
1483.12
1481.88
1487.66
1480.53
1533.02
1397.06
1307.01
1356.17
1318.89
1322.04
1316.48
1318.06
1322.1
1322.77
1323.81
1323.71
1323.18
1323.11
1318.03
1317.66
1318.37
1322.76
1322.95
1323.47
1322.31
1317.82
1316.7
1321.87
1319.58
1356.03
1302.07
1307.23
1340.05
1314.24
1311.72
1305.22
1305.71
1305.74
1305.95
1307.1
1306.4
1305.06
1305.98
1303.78
1304.03
1303.9
1305.78
1303.9
1305.93
1306.03
1305.09
1304.86
1311.07
1311.4
1335.89
1297.72
1317.38
1344.81
1314.64
1308.64
1305.86
1306.01
1304.68
1304.32
1304.7
1303.87
1302.94
1303.6
1303.89
1304.07
1304.04
1303.44
1302.42
1303.48
1304.2
1305.49
1305.35
1307.7
1313.93
1343.85
1312.62
1329.53
1342.13
1315.72
1312.4
1304.98
1305.56
1305.34
1304.54
1304.79
1303.95
1302.96
1303.48
1303.8
1304.21
1303.82
1303.29
1302.51
1303.98
1305.19
1304.88
1304.75
1311.74
1311.99
1338.52
1316.61
1332.21
1351.14
1318.79
1309.96
1307.9
1307.23
1304.67
1304.44
1304.62
1303.85
1303.12
1303.73
1304.16
1304.5
1304.29
1303.54
1302.63
1303.53
1304.26
1306.56
1307.28
1308.43
1319
1348.99
1326.07
1338.99
1360.48
1329.01
1317.51
1308.1
1307.42
1306.46
1305.4
1305.27
1304.2
1303.43
1303.69
1304.37
1304.83
1304.23
1303.57
1303.16
1304.58
1306.19
1306.52
1307.8
1317.61
1325.7
1358.16
1321.2
1359.74
1384.7
1344.03
1321.22
1316.67
1310.65
1306.7
1305.35
1305.39
1304.69
1304.11
1304.53
1305.1
1305.51
1305.2
1304.16
1303.74
1304.94
1306.16
1309.97
1315.31
1320.39
1341.56
1380.92
1349.92
1537.24
1508.42
1387.13
1350.35
1321.98
1316.09
1311.43
1308.09
1306.89
1306.18
1305.7
1305.56
1306.32
1306.85
1306.3
1305.63
1305.61
1307.28
1310.55
1314.22
1321.32
1349.23
1382.75
1505.61
1521.63
1835.01
1574.4
1427.02
1358.45
1338.36
1320.98
1313.89
1310.71
1310.08
1309.18
1308.51
1308.26
1308.96
1309.53
1309.15
1308.55
1308.81
1310.92
1314.08
1320.57
1337.07
1357.19
1424.88
1566.52
1827.37
2507.36
1804.47
1517.45
1406.81
1350.25
1331.8
1325.66
1317.98
1316.44
1315
1314
1313.57
1314.11
1314.83
1314.66
1314.57
1315.11
1317.69
1326.12
1330.03
1348.71
1419.39
1502.17
1797.73
2429.7
2812.57
2301.39
1735.23
1462.95
1425.87
1361.59
1339.8
1332.1
1329.33
1326.95
1325.76
1325.26
1325.44
1326.15
1326.25
1326.86
1328.15
1331.75
1339.7
1371.48
1405.48
1457.28
1731.42
2306.27
2837.28
2786.76
2655.97
2350.26
2202.35
1523.43
1414.47
1396.33
1373.12
1364.1
1357.51
1354.65
1353.47
1353.07
1353.79
1354.59
1357.48
1363.51
1374.86
1399.54
1421.7
1567.39
2234.11
2245.84
2687.17
2766.31
2723.08
2661.24
2743.5
2786.28
2049.49
1830.89
1521.56
1476.48
1458.84
1447.27
1443.25
1441.58
1441.1
1441.89
1443.13
1447.6
1458.61
1478.75
1541.65
1922.85
2100.99
2804.94
2792.49
2703.08
2701.45
2582.55
2639.37
2685.75
2687.54
2590.08
2365.45
2023.54
1963.83
1864.92
1766.35
1731.72
1720.25
1716.46
1718.19
1724.89
1749
1840.11
1961.57
1983.94
2420.78
2637.25
2735.71
2678.38
2652.35
2625.91
2500.26
2536.32
2626.79
2683.74
2657.49
2687.42
2872.04
2939.16
2935.07
3033.87
3115.17
3137.24
3147.2
3141.43
3124.82
3057.84
2905.14
2938.41
2899.74
2717.32
2660.89
2706.22
2624.15
2557.94
2533.32
2313.9
2398.78
2479.26
2530.09
2603.77
2727.86
3028.94
3407.84
3592.89
3683.39
3697.86
3691.42
3688.73
3692.84
3701.93
3703.1
3599.6
3417.75
3054.2
2739.18
2615.77
2565.02
2469.97
2404.57
2329.12
2023.78
2146.11
2301.98
2615.3
2791.49
2830.62
2956.77
3308.26
3529.24
3642.74
3672.84
3672.51
3672.08
3674.64
3676.05
3647.83
3500.75
3289.93
2964.01
2841.92
2808.69
2562.17
2269.51
2139.88
2023.98
1812.9
1878.92
2010.29
2239.46
2714.1
2841.75
2878.66
3103.47
3356.32
3498.02
3543.04
3556.87
3560.97
3560.67
3548.81
3509.3
3359.83
3119.66
2919.17
2921.89
2675.29
2202.87
2007.59
1884.54
1814.73
2459.02
2345.88
2107.51
2196.27
2505.76
2690.21
2700.13
2839.92
3079.36
3279.91
3388.05
3429.74
3439.84
3431.98
3390.4
3277.29
3066.62
2851.17
2730.45
2714.74
2483.25
2222
2139.5
2344.64
2450.8
3252.81
3422.85
2751.38
2300.45
2374.4
2533.57
2551.34
2659.12
2883.34
3108.9
3251.24
3306.32
3315.48
3304.86
3244.32
3089.49
2854.73
2657.06
2560.15
2542.51
2359.33
2325.97
2809.73
3480.85
3258.79
3635.06
3573.43
2812.61
2210.35
2213.33
2370.35
2419.36
2523.71
2736.67
2964.88
3118.29
3178.76
3189.62
3173.72
3100.45
2930.44
2700.06
2521.16
2418.61
2369.71
2190.28
2248.95
2899.87
3620.03
3676.6
3500.54
3117.54
2487.97
2057.87
2061.34
2238.12
2311.61
2415.87
2607.42
2831.89
2989.86
3054.82
3065.51
3047.87
2973.36
2804.26
2581.89
2416.42
2299.64
2235.92
2037.23
2055.78
2476.11
3126.68
3530.12
3515.29
2962.29
2248.78
1903.9
1976.63
2140.65
2208.7
2317.19
2504.66
2716.79
2867.51
2932.04
2945.53
2927.02
2851.45
2688.18
2476.2
2318.47
2202.47
2129.95
1943.58
1893.65
2253.82
2978.01
3544.18
3451.6
2789.82
2098.1
1823.35
1931.28
2068.96
2120.09
2231.16
2408.66
2614.52
2758.3
2819.62
2830.71
2810.76
2739.37
2584.66
2381.62
2227.78
2118.84
2064.82
1897.42
1809.46
2111.81
2831.94
3480.53
3421.31
2749.47
2041.49
1828.47
1906.95
2002
2041.47
2149.3
2324.2
2513.51
2649.66
2708.79
2721.77
2704.81
2635.89
2489.15
2297.65
2149.02
2044.71
2000.27
1877.88
1817.13
2037.75
2760.23
3454.07
3346.43
2601.96
1966.15
1830.98
1883.21
1955.16
1975.92
2085.52
2249.65
2430.64
2554.02
2607.61
2619.24
2600.59
2539.01
2407.56
2226.43
2080.32
1978.48
1962.83
1859.75
1823.38
1971.04
2611.59
3365.85
3316.78
2563.33
1971.69
1864.89
1873.2
1906.78
1915.37
2024.52
2186.64
2349.17
2460.84
2511.42
2522.53
2507.92
2447.93
2323.57
2156.55
2018.91
1918.08
1913.12
1854.47
1849.35
1973.48
2606.9
3361.06
3310.92
2541.13
1941.7
1853.88
1841.39
1874.85
1867.59
1976.84
2122.45
2276.74
2375.8
2420.7
2433.11
2416.14
2366.38
2262.4
2106
1972
1872.02
1884.97
1831.95
1851.14
1932.6
2500.03
3287.89
3276.05
2542.68
1976.08
1889.7
1840.47
1849.24
1826.1
1930.66
2073.47
2208.15
2297.33
2340.21
2348.12
2337.03
2286.71
2188.96
2048.46
1926.53
1827
1866.97
1830.09
1871.35
1959.27
2527.45
3277.3
3185.55
2455.81
1944.38
1884.67
1801.34
1825.59
1794.27
1904.82
2026.45
2152.6
2225.71
2259.08
2270.82
2255.08
2216.15
2136.28
2006.15
1891.6
1794.07
1835.99
1804.15
1873.42
1937.08
2467.4
3215.1
3157.33
2455.74
1995.94
1912.04
1808.43
1803.13
1770.16
1866.85
1982.44
2090.11
2157.52
2192.96
2197.04
2191.35
2150.7
2076.83
1963.66
1865.65
1768.17
1821.76
1805.51
1891.63
1968.98
2431.91
3161.78
3094.6
2401.96
1996.28
1895.69
1783.13
1773.89
1744.86
1849.49
1944.73
2045.64
2097.87
2120.66
2131.79
2118.28
2090.65
2034.37
1927.99
1838.83
1742.43
1783.01
1789.64
1887.14
1966.91
2398.72
3113.65
3052.2
2374.82
2025.68
1913.3
1803.53
1758.83
1731.66
1825.57
1909.46
1993.07
2039.72
2068.26
2069.13
2067.06
2033.82
1980.5
1890.91
1818.51
1724.36
1773.74
1796.08
1902.51
2024.12
2387.62
3075.36
3016.68
2339.82
2015.99
1906.2
1786.18
1729.93
1702.85
1810.39
1874.94
1953.11
1988.69
2004.72
2014.54
2003.14
1984.86
1947.96
1862.5
1803.71
1697.04
1737.4
1797.09
1904.04
2014.66
2338.16
3017.91
2993.51
2330.35
2022.11
1928.43
1805.24
1735
1697.58
1787.35
1846.67
1907.83
1939.31
1962.13
1961.76
1961.72
1933.49
1897.73
1831.19
1789.78
1685.35
1735.07
1807.64
1925.17
2029.27
2340.2
3007.08
2946.34
2286.35
2008.1
1936.58
1790.37
1715.97
1669.27
1775.35
1817.73
1877.31
1897.89
1908.63
1915.81
1905.76
1894.01
1872.44
1802.33
1770.35
1661.1
1719.74
1794.24
1943.77
2008.24
2301.68
2969.93
2937.01
2297.19
2014.82
1978.88
1816.84
1732.77
1673.15
1757.44
1790.65
1834.72
1854.39
1872.74
1871.45
1873.81
1849.59
1826.69
1778.22
1762.39
1660.7
1726.55
1816.81
1982.24
2014.86
2286.84
2937.4
2902.72
2276.29
1993.92
1992.86
1818.46
1717.95
1654.5
1745.67
1762.36
1810.27
1821.44
1827.93
1832.76
1825.59
1818.27
1807.49
1745.99
1742.08
1649.78
1716.03
1814.87
1998.33
1980.16
2272.23
2914.26
2856.49
2267.69
1977.82
1991.92
1840.39
1744.22
1670.74
1736.55
1743.64
1772.14
1783.61
1797.75
1796.02
1800.12
1778.71
1764.2
1726.37
1735.09
1657.84
1737.13
1845.61
1992.31
1966.93
2276.12
2881.52
2831.47
2259.02
1948.14
1984.16
1887.2
1736.33
1665.32
1727.99
1716.24
1752.62
1756.34
1761
1763.16
1758.01
1754.77
1753.69
1696.88
1720.7
1666.48
1725.16
1875.22
1988.62
1936.55
2243.75
2833.5
2796.61
2252.97
1938.18
1977.6
1930.51
1771.35
1701.65
1728.58
1705.2
1718.72
1723.35
1734.61
1732.33
1737.55
1718.28
1715.61
1686.4
1724.53
1693.08
1767.64
1943.8
1980.79
1931.61
2250.83
2798
2768.29
2230.91
1916.23
1957.02
1924.17
1782.8
1701.47
1729.92
1684.63
1708.11
1703.02
1703.89
1704.3
1700.65
1700.68
1709.82
1660.09
1715
1699.15
1776.02
1941.58
1965.54
1913.88
2233.99
2767.69
2735.47
2229.62
1915.71
1931.37
1919.07
1844.64
1748.37
1750.15
1689.05
1680.06
1673.98
1682.32
1678.18
1685
1667.67
1682.21
1670.72
1735.44
1731.61
1829.71
1930.94
1943.12
1912.11
2222.43
2732.72
2714.42
2217.15
1903.62
1902.95
1903.77
1901.19
1757.32
1744.39
1676.68
1680.8
1661.19
1655.37
1654.56
1653.29
1658.68
1684.32
1654.67
1730.62
1758.67
1906.56
1918.52
1914.42
1904.03
2214.55
2710.05
2674.58
2197.38
1900.77
1881.42
1877.59
1886.99
1820.99
1773.37
1703.92
1667.26
1640.92
1641.36
1634.03
1643.52
1629.7
1665.05
1680.23
1759.15
1815.02
1900.71
1894.73
1892.72
1908.6
2204.88
2682.02
2656.5
2195.41
1894.93
1866.47
1851.07
1879.4
1908.65
1797.52
1689.87
1680.01
1644.49
1623.83
1618.01
1620.78
1643.21
1684.63
1667.58
1776.48
1904.21
1881.32
1865.75
1872.57
1893.38
2188.71
2660.57
2606.34
2175.95
1890.85
1852.28
1824.66
1858.38
1890.23
1848.43
1728.36
1673.41
1633.54
1626.24
1604.2
1627.72
1619.61
1672.13
1711.5
1836.75
1897.86
1868.23
1842.16
1859.96
1893.34
2178.34
2612.49
2564.28
2157.56
1874.64
1841.11
1804.77
1825.93
1878.68
1943.54
1737.73
1699.09
1648.84
1617.85
1604.85
1614.14
1647.59
1701.11
1715.58
1928.47
1881.24
1825.63
1817.54
1848.21
1876.2
2160.03
2575.3
2392.89
2105.07
1856.39
1834.64
1791.26
1797.34
1857.74
1920.37
1819.59
1709.21
1641.13
1629.59
1607.46
1630.55
1623.78
1708.86
1800.76
1925.5
1864.72
1800.57
1799.38
1837.19
1857.59
2106.38
2404.29
1030.05
1037.11
1031.71
975.309
893.596
811.138
740.779
681.48
630.893
584.834
542.215
504.216
477.288
459.586
446.826
438.85
433.471
429.923
426.993
424.462
422.166
420.297
419.002
417.952
416.384
413.7
409.395
403.63
397.191
390.141
1040.9
1056.89
1043.49
977.728
888.195
802.784
731.866
675.661
630.569
592.363
559.865
528.612
502.373
483.02
468.179
458.256
451.381
446.42
441.8
437.651
433.624
430.454
428.339
426.495
424.194
420.832
415.89
409.922
403.301
396.342
1046.97
1069.41
1048.24
976.654
883.553
796.954
725.715
669.567
626.324
591.92
563.442
536.071
510.728
490.731
475.771
465.569
458.239
452.527
447.106
442.199
437.537
433.858
431.512
429.376
426.604
422.705
417.725
412.104
405.548
398.791
1067.25
1085.05
1060.29
983.863
887.559
798.887
726.046
668.904
626.021
592.543
566.334
544.068
524.079
504.26
489.518
478.675
469.981
462.494
455.946
450.064
444.875
440.83
438.345
436.142
432.923
428.271
423.187
416.94
410.247
404.335
1083.46
1100.79
1072.93
993.863
895.628
804.475
728.504
669.703
625.781
592.762
567.189
546.174
528.828
510.837
496.134
484.742
475.261
467.062
460.184
453.979
448.761
444.874
443.008
439.979
436.053
430.978
425.517
419.518
412.804
406.88
1100.92
1115.79
1085.35
1005.13
905.37
812.517
734.413
672.819
626.655
592.907
567.028
546.979
530.532
516.049
502.619
491.887
482.255
473.963
467.116
460.814
456.822
452.768
448.777
444.888
440.432
435.873
430.733
425.47
419.037
413.056
1114.8
1131.36
1099.06
1018.65
918.731
824.07
744.266
679.078
629.778
593.587
566.749
547.016
530.823
518.051
506.644
496.096
486.386
477.859
471.021
465.026
460.258
455.949
451.378
447.06
442.304
437.796
432.98
427.865
421.909
416.339
1132.86
1147.42
1114.46
1034.99
935.138
838.234
756.246
688.579
635.845
596.448
567.21
546.858
530.678
519.142
508.832
499.472
490.981
483.036
476.443
470.689
465.424
461.113
455.61
450.835
446.09
441.833
437.253
432.214
426.188
421.256
1146.56
1164.06
1132.17
1054.04
954.646
856.499
772.384
702.565
646.396
603.339
570.057
547.884
531.216
519.724
510.483
502.454
494.205
486.603
480.04
473.83
468.378
463.032
457.608
452.925
448.304
443.877
439.258
434.161
428.185
423.406
1162.97
1181.48
1151
1074.59
976.913
879.259
793.465
721.243
661.968
615.016
577.133
551.476
532.783
521.107
512.822
506.508
499.357
491.855
484.629
477.948
472.047
465.44
460.248
455.569
450.989
446.694
441.921
436.688
430.947
426.74
1178.25
1198.61
1170.17
1096.57
1002.15
906.357
819.759
745.355
683.03
632.261
588.891
558.801
536.781
523.177
514.416
508.384
502.188
494.978
487.351
479.814
474.069
467.276
461.979
457.284
452.774
448.291
443.527
438.345
432.986
428.266
1192.57
1215.05
1189.45
1120.33
1030.21
937.661
851.247
774.828
709.157
654.471
605.737
570.642
544.444
527.432
516.703
510.48
504.872
498.416
490.795
482.421
476.469
470.125
464.61
459.573
454.909
450.314
445.508
440.359
435.263
431.585
1205.8
1230.84
1209.1
1146.04
1061.29
972.596
887.736
809.91
740.2
681.337
628.447
587.924
556.854
535.067
520.7
512.764
506.907
500.737
493.068
484.541
478.35
472.105
466.188
460.797
456.13
451.217
446.316
441.032
436.64
433.028
1218.2
1246
1229.43
1173.57
1094.97
1010.19
927.905
850.486
776.137
713.812
657.712
611.225
574.534
546.955
527.996
516.708
509.408
503.137
496.121
487.895
480.584
474.19
468.164
462.26
456.456
451.567
446.809
442.155
438.086
435.586
1228.17
1261.03
1250.21
1202.22
1130.36
1050.61
970.369
894.51
817.476
752.242
693.218
641.058
598.269
564.1
539.457
523.108
512.498
504.996
498.305
490.503
482.824
475.5
469.545
462.402
457.275
452.66
447.995
443.399
438.978
437.49
1237.83
1276.19
1270.69
1231.45
1166.96
1092.84
1015.23
941.031
863.222
795.532
734.115
677.165
628.2
587.293
556.194
533.82
518.132
508.044
501.058
493.725
485.789
477.736
471.244
464.033
458.856
453.872
449.059
444.426
440.411
438.247
1246.55
1290.74
1290.93
1260.88
1203.93
1135.93
1061.19
987.679
912.974
842.768
779.188
718.6
663.8
616.255
578.09
548.883
527.142
512.919
503.965
496.185
488.431
479.792
471.976
466.058
460.196
454.901
449.907
445.342
441.485
438.565
1253.08
1304.65
1310.9
1289.1
1240.87
1179.03
1108.48
1037.75
964.87
893.867
827.086
763.894
704.025
650.244
605.048
567.86
539.564
520.236
507.435
499.007
491.291
482.317
474.263
468.128
461.826
456.191
451.119
446.517
442.543
439.148
1258.47
1317.83
1329.8
1316.2
1276.91
1220.72
1156.33
1088.45
1018.16
947.489
876.331
811.038
747.482
688.203
636.684
592.715
557.569
531.579
513.331
502.067
493.989
484.93
476.688
469.713
463.296
457.283
451.953
447.132
443.102
440.002
1260
1329.01
1347.16
1342.05
1311.35
1261.47
1203.6
1138.92
1069.96
999.476
927.387
859.014
792.966
729.399
672.71
622.54
580.382
547.479
522.569
506.392
496.818
487.47
479.273
471.583
464.618
458.217
452.946
448.17
444.172
440.997
1262.65
1339.28
1363.75
1366.39
1343.95
1301.01
1249.21
1187.61
1120.35
1050.35
979.588
907.693
839.872
773.352
712.326
656.464
607.924
567.194
535.474
513.152
499.757
489.999
481.868
473.601
465.85
459.234
453.919
449.306
445.12
442.544
1261.02
1347.87
1379.85
1388.44
1374.61
1338.44
1292.3
1234.27
1169.45
1101.19
1031.16
957.514
887.683
819.471
754.612
693.453
639.093
590.676
552.612
523.488
504.494
492.691
484.447
475.833
467.476
460.167
454.675
449.825
445.801
444.019
1261.48
1355.74
1395.22
1408.54
1402.61
1373.96
1332.75
1278.48
1216.81
1151
1082.18
1009.02
936.761
866.804
798.644
732.734
673.19
617.97
573.622
537.656
511.837
496.093
486.681
478.22
469.527
461.497
455.659
450.783
446.589
444.624
1245.55
1364.39
1410.17
1428.21
1428.05
1406.78
1370.7
1321.25
1263.38
1199.05
1130.78
1060.33
986.927
913.717
843.201
773.708
709.549
648.839
597.925
555.648
522.584
501.177
489.301
480.582
472.036
463.041
456.752
451.297
447.201
445.317
1257.85
1390.41
1429.27
1448.23
1451.15
1436.82
1406.17
1361.94
1307.73
1245.67
1178.74
1108.06
1035.86
959.55
887.321
816.05
747.973
682.401
625.83
577.066
536.819
508.4
492.431
482.441
474.14
464.535
457.656
452.103
447.982
446.284
387.907
395.088
401.5
406.787
410.272
412.403
413.728
415.074
416.376
417.943
420.172
422.613
425.509
429.437
435.221
443.97
457.206
477.063
506.624
547.142
589.302
634.83
684.382
742.967
814.65
899.368
983.905
1042.34
1049.44
1041.99
394.122
400.991
407.555
413.334
417.419
420.202
422.196
424.174
426.302
429.125
432.881
436.91
441.41
446.633
453.964
464.563
479.96
501.295
529.488
560.857
592.52
631.109
674.999
731.25
803.589
891.455
984.017
1051.84
1067.44
1052.07
396.654
403.187
409.601
415.23
419.784
423.092
425.2
427.228
429.787
433.318
437.539
442.224
447.477
453.186
460.773
471.678
487.435
509.281
535.901
562.679
590.646
625.018
667.792
724.118
796.603
885.566
982.415
1056.13
1079.51
1057.95
402.282
408.083
414.571
420.391
425.367
429.316
431.81
434.106
437.034
441.107
445.949
451.6
458.113
465.37
474.049
485.37
500.976
521.205
542.173
564.431
590.69
623.149
665.968
723.569
797.74
888.635
988.271
1066.96
1094.2
1077.72
404.97
410.685
417.228
423.591
428.174
432.385
435.369
437.735
440.776
445.061
450.13
456.125
463.027
471.141
480.413
491.924
507.437
525.094
543.477
564.947
589.478
621.902
666.043
725.074
802.108
896.17
997.829
1078.84
1109.34
1093.86
411.448
417.105
423.386
429.024
433.916
437.722
441.476
444.299
447.386
451.707
456.965
463.079
470.046
478.264
487.41
498.13
511.77
526.252
543.518
563.545
588.57
622.086
667.901
729.823
808.859
905.151
1008.38
1090.62
1123.62
1110.49
415.119
420.327
425.908
431.12
435.835
440.505
444.61
448.122
451.395
455.611
460.928
466.997
473.924
482.391
491.672
502.105
513.644
526.433
542.948
562.314
588.834
624.202
673.352
738.191
819.953
917.995
1020.89
1103.65
1138.66
1124.17
420.245
424.961
430.527
435.276
440.038
444.918
449.516
453.865
458.329
461.35
466.409
472.377
479.029
487.053
495.679
504.964
515.067
526.591
542.588
562.344
590.957
629.519
682.069
750.308
834.27
934.334
1037.02
1118.62
1154.16
1141.46
422.547
427.091
432.668
437.439
442.141
446.857
451.361
455.974
461.058
466.105
470.284
476.274
483.111
491.186
500.036
508.046
516.677
527.097
543.184
564.247
596.874
639.363
695.379
766.23
852.266
953.205
1055.59
1135.85
1170.15
1154.7
425.844
429.916
435.388
440.422
445.085
449.566
453.976
458.727
464.137
470.187
475.116
481.179
488.332
496.136
503.183
509.834
517.96
528.806
546.283
570.495
607.929
654.584
713.796
787.187
874.808
975.169
1075.51
1154.31
1187.1
1170.73
427.347
431.934
437.144
441.981
446.744
450.933
455.179
460.105
465.786
472.545
478.232
484.606
491.83
499.081
505.337
511.416
519.81
532.657
553.332
582.089
624.603
675.301
737.592
813.196
901.633
1000.1
1096.95
1172.98
1203.76
1185.54
430.651
434.282
439.282
443.997
448.849
453.156
457.482
462.224
468.028
475.052
481.629
488.394
495.668
502.173
507.617
513.558
523.554
539.555
564.576
599.095
646.75
701.424
766.57
844.402
932.675
1027.83
1120.27
1191.78
1219.63
1199.5
432.36
435.851
440.726
445.358
450.13
454.744
459.31
464.441
470.639
476.717
484.123
491.333
498.369
504.262
509.805
517.405
530.786
551.423
580.925
621.178
673.857
732.609
801.278
880.728
967.714
1058.93
1145.78
1211.11
1234.88
1212.51
434.646
437.727
442.474
446.998
451.265
456.201
460.906
466.224
472.577
478.973
487.066
494.554
501.232
507.074
513.742
524.491
542.728
568.875
603.428
649.457
706.162
768.752
841.616
921.254
1005.54
1092.72
1173.43
1231.22
1249.63
1224.77
436.868
439.529
443.834
448.243
452.3
457.062
462.3
467.88
473.876
481.322
489.743
496.97
503.587
510.587
520.222
535.917
559.884
592.745
634.012
684.951
743.732
809.847
886.622
964.739
1046.33
1128.34
1201.94
1251.65
1264.45
1234.41
437.838
440.644
444.468
449.215
454.044
458.37
464.077
470.227
476.361
484.607
493.088
499.899
506.828
516.498
531.003
552.965
583.446
623.149
670.969
726.79
787.715
854.634
934.035
1009.95
1088.95
1165.41
1231.08
1271.94
1279.4
1244.3
437.314
440.075
444.029
449.109
454.977
459.705
465.436
472.329
479.103
487.292
495.359
503.271
512.036
526.099
546.963
575.708
613.305
659.799
713.256
773.147
835.927
904.898
980.107
1055.88
1132
1202.75
1260.63
1291.98
1293.72
1253.08
437.393
440.563
444.968
450.028
455.739
461.233
467.58
474.669
482.513
490.45
497.898
506.681
519.467
539.352
567.103
603.471
648.268
701.241
759.482
822.134
887.312
957.591
1030.55
1102.2
1175.23
1239.77
1289.16
1311.89
1307.38
1259.68
438.586
441.691
445.851
450.929
456.679
462.77
469.442
476.983
485.847
493.784
501.587
512.498
530.813
557.5
592.232
635.665
686.801
745.216
807.516
871.846
941.059
1010.61
1081.11
1150.77
1217.18
1275.81
1316.35
1330.89
1320.47
1265.04
440.105
442.955
446.886
451.881
457.564
464.063
471.292
479.711
488.822
496.94
506.461
522.142
546.841
580.344
622.127
671.782
728.123
790.507
855.641
922.625
993.356
1062.68
1131.37
1197.86
1258.47
1310.2
1342.07
1348.36
1331.71
1266.76
440.815
443.431
447.264
452.576
458.245
465.389
473.121
482.22
490.978
500.188
513.325
535.127
566.561
607.305
655.29
710.641
771.386
836.911
903.711
974.125
1044.42
1113.04
1180.05
1243.37
1297.91
1342.8
1366.25
1364.88
1342.18
1269.78
441.569
443.972
448.233
453.29
458.904
466.703
475.174
484.483
492.983
504.67
523.293
552.049
589.89
637.779
691.098
751.631
816.124
883.807
952.761
1025.11
1095.43
1161.85
1226.75
1286.55
1335.51
1373.35
1388.43
1381.01
1350.94
1268.39
442.295
444.491
449.211
454.214
460.139
468.237
477.418
486.607
495.843
511.336
536.469
571.953
615.989
670.432
728.836
794.248
862.041
931.507
1003.32
1076.06
1145.36
1209.18
1271.59
1327.44
1371.02
1401.46
1408.68
1396.79
1359.27
1268.92
443.432
445.295
449.655
455.026
461.709
470.112
479.553
488.79
500.119
520.706
552.75
594.193
644.687
704.806
767.994
837.173
907.854
980.576
1054.03
1124.42
1192.78
1256.43
1315.1
1366.08
1404.06
1427.18
1428.48
1412.53
1368.44
1253.57
444.772
446.457
450.495
456.016
462.881
471.87
481.322
491.41
506.439
533.376
572.465
619.689
676.225
741.199
808.782
879.734
952.51
1029.2
1101.84
1171.94
1239.26
1302.6
1356.45
1402.21
1434.61
1450.98
1448.99
1432.31
1394.96
1265.15
941.18
940.256
946.355
960.402
982.904
1007.4
1037.47
1071.53
1108.05
1146.49
1185.89
1225.52
1264.75
1302.92
1339.55
1374.38
1407.23
1437.97
1466.54
1492.81
1516.91
1538.98
1559.12
1577.53
1594.11
1609.01
1622.35
1634.25
1644.78
1654.07
1662.19
1669.17
1675.01
1679.69
1683.38
1686.31
1687.58
1688.12
1687.79
1686.44
1684.07
1680.73
1676.39
1670.92
1664.4
1656.76
1647.94
1637.89
1626.56
1613.9
1599.87
1584.42
1567.51
1549.13
1529.27
1507.95
1485.19
1460.97
1435.31
1408.21
1379.71
1349.93
1319.03
1287.03
1254.03
1220.22
1185.78
1150.87
1115.68
1080.26
1044.74
1009.14
973.545
937.983
902.552
867.438
832.959
799.278
766.954
736.065
706.673
679.177
653.591
629.96
608.071
588.19
570.279
554.453
540.428
528.435
517.997
509.1
501.685
495.237
489.819
485.444
481.317
477.866
475.131
471.947
469.359
467.242
465.415
463.775
462.085
460.503
459.351
458.795
457.976
456.933
456.381
456.246
456.296
456.253
456.08
455.705
454.297
453.608
452.805
452.03
451.255
449.969
448.884
447.751
446.263
1072.12
1079.55
1092.72
1112.01
1137.53
1166.44
1197.82
1231.87
1267.18
1303.15
1339.21
1374.82
1409.58
1443
1474.85
1505.01
1533.32
1559.71
1584.24
1606.8
1627.47
1646.48
1663.99
1680.01
1694.55
1707.71
1719.56
1730.18
1739.67
1748.05
1755.32
1761.55
1766.77
1770.98
1774.24
1776.56
1777.81
1778.21
1777.74
1776.36
1774.07
1770.86
1766.74
1761.75
1755.61
1748.51
1740.36
1731.11
1720.74
1709.17
1696.46
1682.57
1667.48
1651.2
1633.7
1614.99
1595.1
1574.05
1551.84
1528.5
1504.06
1478.55
1451.94
1424.32
1395.62
1366.17
1336.06
1305.33
1274.01
1241.99
1209.46
1176.5
1143.18
1109.56
1075.78
1041.99
1008.36
975.021
942.166
909.933
878.498
847.859
818.085
788.93
760.175
732.649
705.583
679.397
654.316
630.629
608.557
588.306
569.998
553.737
539.283
526.682
515.685
506.152
498.044
490.976
484.994
479.911
475.807
472.388
469.331
466.744
464.749
463.347
461.84
460.522
459.604
459.012
458.813
458.539
458.26
457.948
456.405
455.704
454.685
453.746
452.887
451.523
450.344
449.144
447.834
1175.46
1186.94
1204.74
1227.55
1254.65
1284.91
1317.12
1350.52
1384.4
1418.23
1451.59
1484.1
1515.47
1545.5
1574
1600.87
1626.05
1649.53
1671.4
1691.61
1710.2
1727.3
1743.07
1757.6
1770.89
1782.99
1793.95
1803.86
1812.76
1820.63
1827.53
1833.47
1838.47
1842.55
1845.74
1848.06
1849.44
1849.97
1849.72
1848.61
1846.66
1843.85
1840.19
1835.66
1830.2
1823.81
1816.46
1808.15
1798.92
1788.43
1777.02
1764.52
1750.93
1736.25
1720.4
1703.6
1685.79
1666.99
1647.22
1626.49
1604.83
1582.28
1558.89
1534.67
1509.73
1483.91
1457.26
1429.73
1401.63
1373.12
1344.1
1314.58
1284.52
1253.92
1222.93
1191.66
1160.23
1128.79
1097.37
1066.1
1035.06
1004.24
973.618
943.109
912.662
882.565
852.807
823.154
794.69
766.813
739.81
713.845
688.801
664.77
641.638
619.731
599.226
580.104
562.657
546.727
532.644
520.108
509.332
500.084
492.049
485.497
480.061
475.88
472.509
469.866
467.791
466.253
465.813
465.294
464.26
463.963
462.773
461.612
460.423
459.051
457.231
455.576
454.247
452.868
451.601
1278.19
1293.15
1314.28
1339.52
1367.9
1398.39
1430.09
1462.27
1494.34
1525.9
1556.62
1586.27
1614.69
1641.76
1667.39
1691.51
1714.1
1735.18
1754.89
1773.3
1790.33
1806.03
1820.52
1834.02
1846.5
1857.97
1868.47
1878.02
1886.63
1894.33
1901.14
1907.08
1912.16
1916.39
1919.8
1922.39
1924.17
1925.11
1925.32
1924.77
1923.44
1921.32
1918.41
1914.69
1910.13
1904.72
1898.43
1891.24
1883.15
1874.04
1863.97
1852.92
1840.9
1827.93
1813.85
1798.85
1782.94
1766.1
1748.32
1729.61
1710.14
1689.92
1668.97
1647.29
1624.86
1601.68
1577.77
1553.29
1527.99
1501.88
1474.94
1447.49
1419.52
1391.09
1362.26
1333.06
1303.54
1273.71
1243.63
1213.37
1182.99
1152.54
1122.17
1091.83
1061.54
1031.37
1001.31
971.353
941.761
912.462
883.137
854.696
826.571
798.938
771.854
745.485
719.878
694.973
670.949
647.48
624.914
603.074
582.522
563.495
545.986
530.76
517.408
506.319
497.512
490.472
484.242
479.77
477.805
475.665
473.345
472.84
471.896
470.464
469.036
467.269
464.666
462.244
460.402
458.925
457.332
1381.91
1400.16
1423.97
1451
1480.21
1510.61
1541.46
1572.18
1602.33
1631.62
1659.86
1686.92
1712.72
1737.22
1760.36
1782.15
1802.59
1821.74
1839.73
1856.78
1872.69
1887.43
1901.1
1913.95
1926
1937.2
1947.55
1957.04
1965.69
1973.51
1980.5
1986.69
1992.07
1996.68
2000.54
2003.66
2006.04
2007.7
2008.59
2008.81
2008.32
2007.1
2005.15
2002.45
1998.98
1994.71
1989.63
1983.7
1976.88
1969.13
1960.45
1950.81
1940.22
1928.68
1916.15
1902.67
1888.29
1873.07
1857.04
1840.13
1822.39
1803.94
1784.72
1764.66
1743.74
1722.14
1699.82
1676.81
1653.04
1628.5
1603.41
1577.53
1550.9
1523.51
1495.68
1467.47
1438.92
1410.1
1381.02
1351.82
1322.54
1293.17
1263.57
1233.83
1204.03
1174.2
1144.36
1114.58
1085.05
1055.67
1026.34
997.209
968.246
939.179
910.256
882.014
853.62
825.385
797.366
769.363
741.752
714.51
688
662.42
637.546
614.127
591.452
570.379
551.856
535.321
520.548
508.532
501.098
495.398
489.474
486.066
483.534
480.756
478.788
477.214
475.065
472.413
469.037
466.018
464.273
1484.5
1505.73
1531.82
1560.23
1589.89
1619.94
1649.81
1679.08
1707.45
1734.74
1760.87
1785.77
1809.44
1831.86
1853.05
1873.02
1891.81
1909.57
1926.43
1942.66
1958.01
1972.28
1985.56
1998.11
2010.18
2021.49
2032.02
2041.76
2050.7
2058.87
2066.28
2072.92
2078.83
2084.03
2088.57
2092.43
2095.62
2098.13
2099.98
2101.13
2101.58
2101.41
2100.54
2098.97
2096.69
2093.66
2089.82
2085.15
2079.58
2073.07
2065.61
2057.16
2047.72
2037.26
2025.78
2013.31
1999.92
1985.64
1970.52
1954.57
1937.83
1920.33
1902.11
1883.27
1863.1
1842.38
1820.73
1798.13
1774.57
1750.28
1725.37
1699.84
1673.65
1647.04
1619.81
1592.07
1563.79
1535.27
1506.57
1477.79
1448.97
1420.1
1391.29
1362.6
1333.99
1305.43
1276.83
1248.12
1219.32
1190.47
1161.58
1132.64
1103.5
1074.22
1045.03
1015.95
986.749
957.221
927.696
897.984
867.977
837.819
807.792
778.164
748.594
719.696
691.09
663.069
636.786
612.184
588.551
566.221
548.87
535.873
524.059
513.754
506.152
498.695
492.843
488.572
485.385
481.831
478.746
475.771
473.638
1585
1608.5
1636.66
1665.86
1695.59
1725.1
1753.98
1781.92
1808.77
1834.44
1858.9
1882.15
1904.21
1925.1
1944.88
1963.62
1981.4
1998.39
2014.83
2030.82
2046.08
2060.32
2073.65
2086.4
2098.82
2110.57
2121.58
2131.82
2141.29
2150
2157.97
2165.22
2171.8
2177.69
2183.12
2187.88
2192.01
2195.45
2198.29
2200.44
2201.94
2202.7
2202.89
2202.45
2201.32
2199.45
2196.78
2193.23
2188.75
2183.29
2176.82
2169.31
2160.7
2150.95
2140.04
2128.03
2114.99
2101.01
2086.15
2070.45
2053.93
2036.6
2018.41
1999.36
1979.28
1958.22
1936.2
1913.3
1889.6
1864.85
1839.36
1813.1
1786.06
1758.69
1731.04
1703.18
1675.2
1646.86
1618.23
1589.51
1560.92
1532.45
1504.16
1476.08
1448.17
1420.42
1392.85
1365.44
1338.11
1310.74
1283.23
1255.52
1227.62
1199.45
1170.92
1142.07
1112.78
1083
1052.88
1022.56
991.69
960.574
929.699
898.486
866.793
835.134
803.332
771.422
739.997
709.703
679.811
650.327
623.619
601.539
583.396
565.696
549.654
534.372
521.064
510.564
502.511
495.544
490.249
485.898
483.21
1682.54
1708.32
1737.77
1767.3
1796.81
1825.64
1853.55
1880.34
1905.97
1930.39
1953.63
1975.71
1996.66
2016.56
2035.5
2053.6
2070.99
2087.92
2104.56
2120.83
2136.3
2150.91
2164.71
2178.01
2190.95
2203.35
2214.95
2225.77
2235.81
2245.04
2253.54
2261.36
2268.59
2275.31
2281.53
2287.18
2292.18
2296.29
2300.06
2303.05
2305.35
2306.98
2308.05
2308.47
2308.36
2307.46
2305.73
2303.12
2299.56
2295
2289.42
2282.69
2274.69
2265.33
2254.64
2242.7
2229.63
2215.55
2200.56
2184.72
2167.99
2150.28
2131.52
2111.69
2090.65
2068.4
2045.05
2020.73