/*--------------------------------*- C++ -*----------------------------------*\
| =========                 |                                                 |
| \\      /  F ield         | OpenFOAM: The Open Source CFD Toolbox           |
|  \\    /   O peration     | Version:  2112                                  |
|   \\  /    A nd           | Website:  www.openfoam.com                      |
|    \\/     M anipulation  |                                                 |
\*---------------------------------------------------------------------------*/
FoamFile
{
    version     2.0;
    format      ascii;
    arch        "LSB;label=32;scalar=64";
    class       volScalarField;
    location    "0.00841";
    object      T;
}
// * * * * * * * * * * * * * * * * * * * * * * * * * * * * * * * * * * * * * //

dimensions      [0 0 0 1 0 0 0];

internalField   nonuniform List<scalar> 
13875
(
1412.01
1535.59
1482.4
1487.69
1481.87
1483.62
1484.18
1483.67
1484.65
1484.53
1484
1484.25
1483.52
1483.9
1483.84
1483.86
1483.44
1484.72
1484.87
1483.12
1481.88
1487.67
1480.54
1532.57
1396.87
1307.02
1356.17
1318.89
1322.22
1316.47
1317.99
1321.91
1323.02
1323.85
1323.5
1322.98
1323.15
1318.07
1317.67
1318.36
1322.76
1322.95
1323.47
1322.31
1317.82
1316.7
1321.9
1319.6
1356
1303.7
1307.24
1340.09
1314.31
1311.99
1305.28
1305.8
1305.81
1306.2
1307
1306.09
1304.92
1305.99
1303.83
1304.04
1303.9
1305.78
1303.89
1305.93
1306.03
1305.09
1304.86
1311.07
1311.36
1336.31
1298.16
1317.38
1344.84
1314.7
1308.91
1306.01
1306.3
1304.66
1304.48
1304.47
1303.62
1302.9
1303.55
1303.94
1304.08
1304.05
1303.45
1302.42
1303.49
1304.21
1305.49
1305.35
1307.69
1313.95
1343.88
1311.88
1329.53
1342.16
1315.75
1312.65
1305.14
1305.91
1305.41
1304.56
1304.58
1303.68
1302.95
1303.47
1303.83
1304.23
1303.83
1303.29
1302.51
1303.99
1305.19
1304.88
1304.75
1311.75
1312
1338.33
1315.87
1332.22
1351.17
1318.83
1310.11
1308.06
1307.33
1304.73
1304.6
1304.52
1303.58
1303.09
1303.69
1304.17
1304.51
1304.3
1303.55
1302.63
1303.54
1304.27
1306.56
1307.27
1308.43
1319.02
1348.96
1325.93
1339.01
1360.5
1329.08
1317.69
1308.05
1307.32
1306.47
1305.05
1304.99
1304.06
1303.59
1303.76
1304.34
1304.83
1304.23
1303.58
1303.17
1304.59
1306.19
1306.5
1307.79
1317.61
1325.71
1358.13
1321.36
1359.74
1384.71
1344.06
1321.27
1316.8
1310.7
1306.85
1305.44
1305.15
1304.64
1304.24
1304.48
1305.08
1305.5
1305.21
1304.17
1303.75
1304.95
1306.16
1309.97
1315.3
1320.38
1341.52
1380.9
1350.37
1537.19
1508.41
1387.17
1350.51
1321.69
1316.05
1311.37
1308.11
1306.81
1306.26
1305.8
1305.47
1306.27
1306.85
1306.3
1305.64
1305.62
1307.28
1310.55
1314.22
1321.31
1349.22
1382.71
1505.63
1521.87
1834.87
1574.37
1427.04
1358.49
1338.56
1320.87
1313.85
1310.71
1310.14
1309.22
1308.47
1308.13
1308.87
1309.52
1309.16
1308.56
1308.82
1310.92
1314.07
1320.56
1337.05
1357.15
1424.85
1566.53
1827.03
2507
1804.23
1517.47
1407.11
1350.31
1331.6
1325.55
1317.77
1316.56
1314.97
1313.83
1313.36
1314
1314.81
1314.68
1314.58
1315.12
1317.69
1326.11
1330.01
1348.69
1419.41
1502.14
1797.78
2429.14
2812.23
2301.62
1735.39
1463.09
1425.71
1361.3
1339.87
1331.8
1329.33
1326.71
1325.41
1324.9
1325.33
1326.13
1326.26
1326.86
1328.16
1331.75
1339.71
1371.34
1405.41
1457.24
1731.38
2306.27
2837.2
2786.45
2655.19
2350.81
2203.25
1523.5
1414.51
1396.38
1372.85
1364.02
1357.1
1354.1
1353.01
1352.97
1353.75
1354.58
1357.47
1363.53
1374.83
1399.62
1421.7
1567.33
2234
2245.53
2687.24
2766.41
2722.76
2661.31
2744.01
2786.99
2050.16
1829.65
1521.27
1476.08
1458.79
1446.87
1442.6
1441.2
1441.03
1441.84
1443.09
1447.53
1458.56
1478.7
1541.49
1921.62
2100.85
2804.69
2792.46
2703.14
2701.59
2582
2638.51
2685.43
2687.85
2590.07
2364.81
2021.93
1962.93
1864.62
1765.88
1731.03
1719.95
1716.4
1718.12
1724.78
1748.68
1839.66
1961.57
1984.22
2420.29
2636.86
2735.49
2678.15
2652.23
2625.93
2499.73
2536.61
2627.95
2684.16
2657.29
2686.5
2870.76
2941.42
2935.54
3033.85
3114.23
3136.97
3147.05
3141.11
3124.44
3057.67
2904.18
2936.98
2900.45
2717.12
2660.41
2706.16
2624.53
2558.1
2533.29
2313.26
2397.39
2478.52
2530.9
2604.64
2728.5
3027.8
3407.93
3592.95
3683.04
3697.37
3691.3
3688.8
3692.72
3701.84
3703.11
3599.29
3417.8
3055.93
2739.73
2615.84
2565.35
2469.74
2404.28
2329.1
2023.76
2146.93
2301.85
2612.84
2788.21
2830.68
2958.11
3310.2
3527.67
3642.22
3672.33
3672.23
3671.94
3674.24
3675.76
3647.59
3500.58
3290.88
2962.78
2839.54
2806.92
2562.19
2269.77
2140.16
2023.96
1812.28
1877.72
2010.26
2241.28
2719.68
2838.94
2878.27
3104.71
3358.16
3498.54
3543.3
3556.8
3560.59
3560.21
3548.14
3509.07
3360.44
3118.66
2918.08
2920.73
2677.91
2204.12
2007.59
1883.19
1814.31
2451.56
2338.41
2099.35
2190.17
2505.17
2689.08
2698.8
2842.25
3078.99
3279.51
3387.68
3429.3
3439.63
3431.79
3391.18
3278.52
3066.94
2851.59
2730.73
2713.87
2484.77
2220.04
2136.19
2337.57
2444.85
3274.98
3425.92
2744.24
2301.56
2377.13
2532.54
2549.97
2661.46
2886.86
3109.9
3251.58
3306.54
3315.44
3305.38
3244.14
3089.17
2855.44
2657.52
2559.53
2541.81
2358.94
2324.58
2804.39
3484.24
3277.74
3651.55
3583.67
2804.91
2210.41
2213.15
2369.31
2418.38
2524.13
2737.86
2965.88
3118.54
3178.51
3189.8
3173.26
3101.39
2932.22
2701.24
2521.21
2418.89
2369.1
2189.68
2245.93
2893.68
3633.45
3685.33
3505.85
3107.8
2480.02
2051.84
2062.04
2236.78
2311.05
2416.88
2610.22
2832.34
2989.95
3055.22
3065.52
3049.37
2973.61
2803.68
2582.04
2416.99
2298.97
2234.61
2036.68
2053.62
2467.88
3107.57
3534.46
3522.96
2956.28
2239.37
1898.58
1977.2
2138.96
2207.03
2316.49
2505.18
2717.84
2867.65
2931.7
2945.92
2925.81
2852.2
2690.05
2477.32
2318.16
2203.19
2129.55
1942.05
1890.41
2250.36
2979.59
3549.68
3455.99
2782.57
2089.85
1818.84
1931.56
2066.8
2118.71
2231.67
2410.41
2614.02
2758.07
2820.25
2830.28
2812.99
2739.97
2584.1
2381.86
2228.4
2117.3
2063.54
1898.41
1806.33
2106.25
2826.02
3482.11
3426.46
2745.8
2035.65
1824.8
1906.61
1999.27
2039.09
2148.3
2324.06
2514.41
2649.85
2707.75
2722.36
2702.67
2636.53
2491.19
2298.56
2148.76
2045.78
1999.28
1876.42
1814.31
2036.59
2762.84
3457.09
3351.8
2597.45
1961.64
1826.31
1882.81
1951.87
1974.54
2086.17
2250.54
2429.35
2553.43
2608.94
2618.66
2603.7
2539.3
2406.81
2227.5
2080.75
1976.38
1961.02
1862.98
1819.75
1970.22
2616.82
3374.63
3322.66
2563.92
1969.94
1859.25
1873.58
1903.89
1913.89
2023.78
2185.78
2350.17
2460.99
2509.25
2523.34
2504.83
2448.48
2325.69
2156.77
2019.36
1919.62
1910.43
1854.74
1848.8
1976.06
2614.14
3369.39
3315.12
2538.66
1940.04
1851.99
1842.93
1871.01
1866.55
1977.47
2122.92
2275.02
2374.97
2423.1
2431.98
2420.04
2366.3
2261.73
2107.59
1971.63
1870.63
1883.87
1834.71
1851.24
1935.52
2517.15
3286.9
3279.91
2541.11
1973.31
1885.76
1841.81
1846.01
1825.36
1929.92
2071.99
2209.29
2297.38
2335.84
2348.84
2332.84
2287.69
2190.5
2048.44
1927.63
1828.47
1862.87
1830.63
1876.1
1960.15
2525.38
3263.61
3190.26
2453.09
1944.33
1885.61
1802.74
1822.01
1793.72
1905.62
2027.07
2151.16
2224.28
2263.19
2269.1
2259.95
2215.36
2135.88
2007.42
1890.64
1794.34
1835.48
1805.43
1876.03
1940.64
2459.42
3208.49
3161.03
2452.82
1995.97
1912.84
1809.78
1800.77
1770.55
1865.16
1980.38
2090.63
2157.61
2186.76
2197.97
2185.34
2151.59
2077.6
1963.18
1866.88
1769.74
1818.49
1809.06
1893.74
1971.99
2424.5
3159.74
3093.21
2395.06
1995.22
1896.6
1783.66
1770.56
1744.22
1850.09
1945.75
2044.91
2095.83
2126.65
2129.81
2123.92
2088.64
2034.27
1929.36
1837.36
1744.3
1780.8
1790.79
1890.92
1974.79
2388.9
3100.98
3055.53
2369.09
2025.13
1915.9
1804.68
1756.63
1732.92
1823.95
1906.95
1992.62
2040.29
2060.81
2070.02
2059.67
2034.68
1980.65
1890.33
1819.82
1726.79
1770.74
1797.73
1895.54
2017.84
2369.01
3056.33
3022.07
2336.28
2016.82
1911.98
1787.88
1727.54
1702.78
1809.81
1876.46
1953.37
1986.19
2011.2
2012.25
2009.64
1981.71
1948.74
1863.41
1801.93
1698.72
1734.64
1797.68
1907.53
2005.29
2328.66
3014.78
3000.59
2328.08
2022.64
1928.48
1802.62
1731.99
1697.96
1786.64
1845.05
1906.48
1940.42
1954.39
1962.51
1954.07
1934.86
1896.53
1832.46
1789.44
1688.79
1732.5
1805.13
1917.51
2022.06
2335.34
3014.31
2951.33
2282.34
2007.5
1943.56
1792.67
1715.16
1671.21
1775.51
1820.24
1878.32
1894.83
1914.63
1913.42
1913.09
1890.66
1873.39
1802.55
1768.9
1663.15
1716.27
1792.87
1940.92
2000.94
2315.38
2997.97
2941.19
2292.74
2015.03
1985.81
1816.52
1733.57
1674.98
1756.61
1790.21
1832.15
1855.94
1865.55
1872
1865.29
1851.64
1825.34
1780.53
1762.77
1663.77
1725.63
1814.25
1963.06
2011.18
2298.52
2942.74
2905.94
2270.36
1991.72
1994.9
1819.1
1715.09
1654.9
1745.95
1765.49
1812.01
1818.61
1834.13
1831.03
1832.89
1814.62
1808.51
1746.07
1739.81
1650.03
1713.3
1811.18
2001.33
1971.6
2273.16
2911.65
2859.88
2263.3
1975.87
1994.87
1845.46
1748.52
1676.89
1737.99
1743.83
1768.69
1785.01
1791.96
1796.3
1791.42
1780.85
1762.84
1729.48
1736.89
1659.44
1735.62
1843.6
1988.78
1965.77
2258.28
2881.85
2833.31
2254.95
1946.58
1985.72
1897.45
1737.88
1667.25
1726.9
1718.31
1753.67
1754.26
1766.38
1761.87
1766
1750.88
1754.41
1695.67
1718.42
1668.46
1725.04
1871.98
1992.23
1933.95
2224.67
2828.4
2798.38
2249.46
1937.5
1978.34
1922.83
1771.58
1704.27
1731.16
1706.87
1715.37
1724.73
1729.14
1732.43
1729.98
1720.68
1713.74
1689.33
1725.23
1692.07
1766.28
1942.51
1977.9
1930.41
2240
2780.81
2769
2227.02
1915.81
1958.28
1926.76
1792.5
1709.92
1732.22
1686.04
1708.43
1701.09
1709.08
1703.22
1709.27
1697.15
1711.14
1659.13
1713.14
1702.34
1773.33
1934.69
1969.32
1916.14
2228.12
2764.8
2735.94
2225.29
1916.48
1931.91
1917.03
1855.18
1747.79
1748.86
1689.4
1677.14
1675.36
1676.56
1678.24
1677.62
1671.23
1679.51
1672.42
1735.05
1729.67
1829.74
1929.46
1940.58
1917.73
2245.57
2723.91
2714.88
2211.54
1902.72
1903.87
1902.36
1894.77
1758.58
1749.7
1678.58
1683
1659.56
1661.6
1653.65
1661.73
1654.76
1686.58
1653.26
1728.73
1757
1901.29
1916.37
1920.12
1922.7
2231.93
2711.23
2675.69
2192.28
1901.51
1885.23
1875.39
1887.83
1828.07
1775.3
1703.52
1662.83
1643.17
1634.75
1633.77
1635.22
1635.67
1660.22
1683.09
1758.78
1810.46
1897.63
1896.7
1896.88
1913.21
2207.5
2689.95
2658.34
2190.62
1892.66
1864.51
1847.49
1870.57
1905.82
1793.92
1690.88
1683.23
1641.76
1630.25
1617.24
1629.24
1635.69
1685.95
1662.6
1774.07
1888.94
1879.91
1870.7
1880.63
1896.93
2180.45
2672.63
2609.59
2170.16
1889.67
1853.77
1822.48
1856.28
1891.67
1853.24
1731.83
1669.5
1636.77
1613.38
1605.68
1612.91
1627.62
1668.37
1714.69
1828.28
1896.32
1869.23
1843.61
1858.31
1886.75
2171.22
2627.83
2568.72
2151.7
1872.24
1841.59
1804.89
1822.67
1879.07
1946.32
1737.87
1700
1646.22
1631.13
1606.38
1628.81
1638.25
1702.4
1707.54
1919.08
1881.43
1827.52
1821.32
1849.29
1873.39
2155.89
2589.3
2399.66
2102.69
1853.11
1830.78
1786.93
1795.67
1852.62
1919.1
1822.57
1706.18
1648.39
1615.39
1608.79
1614.01
1633.57
1701.56
1799.56
1926.61
1860.3
1807.1
1799.86
1830.21
1854.42
2103.98
2413.18
833.269
747.188
667.067
610.345
580.268
572.531
564.748
548.722
529.334
515.793
500.41
483.281
464.79
450.049
436.495
426.201
418.515
412.695
409.258
406.691
404.58
402.533
400.775
399.066
398.025
397.133
394.998
391.553
387.289
381.92
829.056
745.731
677.432
630.589
606.18
593.088
578.409
549.827
518.129
496.907
478.646
463.742
451.667
442.32
432.762
425.963
421.787
419.065
417.372
415.385
412.975
410.627
409.089
407.586
406.317
404.829
401.754
397.512
391.776
385.452
838.987
754.604
701.306
660.912
640.063
626.187
603.866
564.953
528.82
502.437
482.314
465.842
452.922
442.977
434.988
430.068
426.718
424.3
422.097
419.546
417.692
415.97
413.961
412.541
411.184
409.305
405.621
400.898
394.811
387.941
868.459
785.825
741.08
705.58
692.454
674.677
647.831
598.481
554.177
521.747
495.56
474.129
458.135
446.754
439.915
436.722
434.703
432.8
430.054
428.554
426.803
424.752
422.31
420.514
418.651
415.787
411.058
405.453
398.582
392.46
889.39
817.657
786.325
761.807
758.301
737.744
708.751
651.47
599.375
557.274
522.014
494.116
473.182
458.771
451.527
446.878
443.687
440.964
438.666
436.245
434.148
431.808
428.83
426.517
424.025
420.436
415.402
409.297
402.161
394.895
914.579
857.038
840.737
827.674
832.287
814.966
778.945
713.885
653.762
602.131
557.747
521.744
494.304
476.384
466.566
459.997
455.269
452.178
449.979
447.146
443.813
440.433
436.776
433.967
430.771
426.023
420.512
413.982
406.662
399.54
938.707
898.076
898.089
897.353
906.258
884.696
843.482
773.327
707.016
649.067
597.824
555.262
521.842
498.877
485
475.277
468.837
464.308
460.365
456.318
451.923
447.418
443.002
439.801
436.004
430.428
424.523
417.893
410.807
402.609
965.98
944.973
957.346
966.583
973.093
943.812
891.646
814.592
743.896
684.056
631.028
586.019
548.93
521.186
503.394
491.052
482.899
477.033
471.961
466.714
461.16
455.46
450.426
446.054
441.739
436.644
429.752
422.79
415.369
407.5
998.776
989.716
1013.94
1028.79
1026.47
985.914
920.197
835.199
763.001
703.462
653.076
608.791
571.235
541.82
520.892
505.83
495.954
488.298
481.139
474.814
468.225
461.775
456.063
450.562
446.113
441.452
434.267
427.049
419.386
412.066
1030.32
1035.77
1070.72
1082.09
1071.97
1013
937.838
846.119
773.158
713.18
664.172
622.032
586.23
556.833
534.715
518.591
507.321
498.288
489.787
482.12
474.859
468.068
462.172
456.469
451.802
446.385
439.716
431.993
424.079
416.714
1058.33
1079.48
1120.71
1129.37
1106.12
1035.65
953.419
855.659
781.091
719.018
669.916
628.923
595.243
567.148
545.06
528.32
515.507
505.783
496.366
487.517
479.952
472.795
466.774
461.44
456.118
450.199
443.943
436.423
429.027
422.025
1083.97
1122.41
1165.99
1169.77
1134.29
1057.5
969.057
867.398
790.476
724.887
673.651
632.63
599.58
572.655
551.567
535.089
522.11
511.107
501.374
492.427
484.553
477.936
472.076
467.001
461.649
455.539
449.266
442.213
435.062
428.046
1109.81
1163.48
1204.81
1204.1
1162.51
1083.11
989.203
884.304
803.819
733.751
678.791
635.642
601.786
575.24
554.643
538.882
526.555
515.191
505.077
496.244
488.542
482.214
476.367
470.901
465.179
459.755
453.668
446.961
439.858
433.812
1128.98
1200.53
1238.61
1236.01
1192.36
1113.11
1014.32
907.302
821.666
747.541
687.524
640.481
603.926
576.696
555.849
540.654
529.57
517.846
508.114
499.649
492.349
485.916
480.017
474.571
469.192
464.501
459.315
452.379
445.188
439.163
1149.93
1232.73
1269.95
1267.25
1224.38
1146.62
1043.83
934.282
844.486
767.488
701.252
648.782
607.772
578.012
556.436
541.549
531.246
520.425
511.145
503.075
495.472
488.665
482.76
477.543
473.25
468.462
463.194
457.074
450.525
444.359
1168.33
1261.33
1299.7
1298.16
1257.13
1182.49
1076.67
966.143
872.963
792.932
720.453
661.599
614.936
581.152
557.16
542.015
532.028
523.151
514.567
506.227
498.642
491.581
485.612
480.969
476.264
471.394
466.71
461.695
454.741
448.298
1181.76
1286.74
1327.8
1327.81
1290.19
1219.74
1112.07
1002.52
906.23
823.125
745.231
679.771
627.063
587.905
559.61
542.586
532.859
524.878
517.574
509.346
501.031
494.072
488.194
483.569
478.527
473.934
469.471
464.505
458.778
452.199
1195.81
1310.16
1353.64
1355.92
1322.7
1257.13
1151.55
1042.01
944.06
857.783
775.666
703.943
644.807
598.979
565.368
544.98
534.01
526.295
520.471
511.991
503.175
496.253
490.393
485.478
481.331
476.492
472.058
467.507
461.91
456.475
1206.83
1332.73
1378.52
1381.82
1352.88
1293.59
1192.72
1087.7
985.383
896.133
811.369
734.111
668.205
614.957
575.611
550.395
536.212
527.873
522.244
513.939
504.71
498.188
492.774
487.622
483.793
479.94
475.959
470.443
465.326
460.32
1216.94
1350.1
1400.94
1407.66
1384.72
1329
1234.02
1133.77
1032.15
938.169
852.215
770.599
697.579
636.853
591.082
559.592
540.335
529.573
522.908
515.242
506.892
499.827
494.88
489.84
485.657
482.299
478.533
473.493
468.268
463.656
1229.48
1367.5
1421.32
1432.38
1416.47
1363.89
1276.11
1181.62
1082.74
986.005
898.137
813.382
733.768
665.675
612.61
573.111
546.174
530.753
523.095
516.353
508.995
501.556
496.75
491.632
487.52
484.082
480.462
475.998
471.147
467.534
1228.95
1380.37
1439.9
1455.29
1446.74
1398.82
1317.9
1229.13
1135.92
1039.61
948.1
861.569
776.862
701.628
639.917
590.902
555.177
533.272
523.046
517.137
511.246
503.537
498.61
493.54
489.542
485.679
482.107
478.016
473.633
469.994
1235.32
1394.59
1457.48
1477.08
1475.5
1431.75
1359.52
1277.25
1189.4
1096.64
1002.58
913.541
825.532
743.344
671.922
613.315
569.542
539.726
525.279
518.608
513.46
506.103
500.702
495.632
491.338
486.948
483.427
479.569
475.912
471.989
1225.84
1406.41
1473
1496.76
1500.7
1464.37
1401.13
1325.49
1242.52
1153.83
1060.89
967.141
877.403
789.916
709.884
641.98
590.644
552.262
531.025
521.28
515.676
509.334
503.114
497.669
492.776
488.342
484.836
481.102
477.461
473.816
1231.34
1433.07
1492.35
1517.31
1523.67
1496.05
1441.5
1372.19
1293.48
1207.66
1116.17
1018.79
928.779
840.18
754.187
678.76
619.033
571.729
540.826
526.137
518.408
512.778
505.928
500.149
495.196
490.497
486.967
483.24
479.259
475.435
380.395
385.748
389.997
393.325
395.361
396.335
397.112
398.915
401.372
403.417
405.459
408.055
411.568
417.551
425.252
435.579
449.692
465.933
483.491
499.674
515.525
530.623
552.529
569.191
577.599
586.887
618.309
675.511
754.584
840.208
383.62
390.11
395.904
400.08
402.904
403.849
405.533
407.312
409.13
411.854
414.11
415.799
417.453
420.134
424.647
431.818
441.927
453.363
466.014
481.452
500.779
524.258
558.705
588.671
603.151
617.447
642.404
689.03
754.419
836.684
386.319
393.302
399.38
404.097
407.509
409.026
410.741
412.241
414.139
416.156
418.434
420.638
422.83
425.421
428.551
434.194
442.938
454.847
468.953
486.873
509.416
538.601
578.326
619.164
639.649
654.702
675.197
715.753
766.296
848.587
390.846
397.113
403.902
409.457
413.958
416.365
418.519
420.349
422.584
424.657
426.576
428.754
431.185
433.218
435.438
439.595
447.639
460.694
478.986
503.41
533.677
570.402
618.759
669.263
693.732
711.269
722.72
757.856
799.651
877.955
393.377
400.638
407.673
413.712
418.61
421.766
424.553
427.131
430.027
432.398
434.417
436.973
439.577
442.421
446.303
451.107
459.745
477.006
501.494
533.58
573.607
620.751
677.468
735.559
761.937
780.765
782.485
805.345
833.074
900.886
397.79
405.022
412.239
418.765
424.025
428.159
431.624
434.93
438.68
441.945
445.09
447.913
450.939
454.414
459.889
466.946
478.215
499.598
530.82
571.593
621.745
678.594
743.141
808.479
841.862
856.909
851.108
861.545
873.874
927.445
400.967
409.076
416.09
422.824
428.257
432.872
436.945
441.048
445.324
449.657
454.062
458.187
462.058
467.168
474.954
485.687
501.761
528.635
566.24
613.009
668.56
731.219
801.446
872.158
911.117
931.239
922.835
919.899
916.016
952.316
405.722
413.582
420.984
428.092
433.848
438.831
443.413
448.179
453.386
458.795
464.289
469.899
475.238
481.104
490.481
504.202
524.238
555.878
597.184
645.768
699.976
761.937
835.851
916.274
966.969
996.785
992.293
979.599
963.815
980.976
410.592
417.805
425.453
432.612
438.514
443.527
448.068
453.218
459.135
465.514
472.186
479.46
486.682
494.105
504.983
521.443
544.61
577.629
617.724
662.737
713.773
775.222
850.613
939.461
1004.02
1047.44
1052.4
1036.79
1009.18
1013.96
415.408
422.528
430.46
437.966
444.221
449.482
453.818
458.906
465.041
471.992
479.546
487.85
496.712
505.172
517.163
535.305
559.49
590.992
626.925
669.513
719.729
782.127
858.177
953.096
1027.09
1089.07
1103.88
1092.4
1055.69
1045.85
420.765
427.574
434.996
442.471
448.892
454.273
458.748
463.543
469.58
477.002
484.996
493.542
503.517
513.384
525.645
545.212
568.356
596.918
630.798
672.388
722.899
787.042
863.933
965.217
1045.65
1119.71
1148.7
1140.83
1098.45
1073.09
427.563
434.106
441.004
448.218
454.53
459.192
463.432
468.32
474.317
481.403
489.357
498.354
508.701
519.688
532.541
549.473
571.645
599.11
632.615
674.133
726.131
793.547
872.816
978.689
1065.32
1145.33
1186.35
1184.47
1142.11
1098.99
432.723
439.341
446.203
453.15
458.208
462.958
468.092
473.262
478.749
484.706
492.601
501.651
512.186
523.813
535.938
551.641
572.556
599.979
634.037
677.35
733.001
804.581
887.788
997.428
1089.62
1171.96
1218.39
1221.5
1182.84
1124.08
437.278
443.655
451.277
457.567
462.495
467.38
472.283
477.2
482.536
488.015
494.877
504.627
514.749
526.714
537.7
552.744
573.218
600.652
637.086
684.36
745.563
820.788
908.774
1020.4
1118.33
1200.84
1248.39
1253.86
1218.73
1143.32
442.881
448.699
455.242
461.067
465.623
470.46
475.305
480.237
485.832
491.344
497.528
507.02
517.209
528.344
538.569
553.28
574.051
603.035
643.504
696.383
764.311
843.199
935.531
1046.82
1150.67
1231.5
1278.9
1284.02
1249.56
1164.38
447.209
452.85
458.941
464.428
469.003
473.903
478.293
483.331
488.911
494.477
500.943
509.78
518.991
528.523
539.066
553.775
576.541
609.288
655.179
713.988
788.043
870.411
966.154
1078.31
1185.43
1263.5
1309.05
1313.28
1276.97
1182.28
451.01
456.452
462.125
467.324
471.999
476.741
480.847
485.622
490.949
497.407
504.387
512.749
520.865
529.217
539.494
555.798
582.532
620.554
672.526
737.895
816.706
902.083
1000.91
1113.8
1221.93
1296.16
1338.15
1340.68
1301.14
1195.67
455.007
459.962
465.313
470.361
474.862
479.386
483.146
487.183
492.91
499.687
507.241
515.125
522.214
530.039
541.098
560.839
592.568
637.298
695.874
767.653
850.831
938.99
1039.3
1152.46
1259.6
1329.07
1366.32
1366.13
1322.82
1209.58
459.52
463.532
468.5
473.413
477.515
481.71
485.266
489.578
494.709
502.069
510.366
517.767
523.516
531.757
545.758
570.249
608.16
660.02
725.498
803.018
888.766
979.56
1084.98
1194.39
1297.01
1360.64
1392.48
1389.12
1343.06
1220.99
463.221
466.954
471.464
476.576
479.963
483.609
487.317
492.004
496.794
503.873
512.276
519.361
525.882
535.441
554.271
585.003
629.624
688.762
761.443
843.872
931.124
1026.64
1131.56
1236.11
1333.52
1391.12
1416.94
1410.82
1360.07
1230.87
466.49
470.469
474.785
478.839
481.991
485.426
489.267
493.737
498.765
506.236
513.369
519.711
527.899
541.991
567.36
605.856
657.89
724.588
803.956
890.054
979.404
1077.55
1179.64
1278.03
1368.71
1422.49
1440.9
1430.42
1377.3
1243.65
468.83
473.029
477.33
480.889
483.979
487.149
491.208
495.571
500.765
508.336
514.511
520.1
529.998
550.671
584.956
632.642
693.33
767.74
852.322
940.62
1032.78
1131.42
1228.28
1320.06
1403.81
1452.82
1463.38
1448.47
1389.98
1243.2
470.811
475.126
479.321
482.623
485.569
488.885
493.342
497.872
503.333
510.533
516.012
522.183
535.593
563.943
606.46
663.735
734.353
816.426
904.889
994.939
1089.88
1185.87
1276.78
1362.04
1437.39
1481.39
1484.68
1465.76
1404.3
1249.17
472.726
476.927
481.002
484.009
487.034
490.779
495.571
500.563
506.673
512.879
518.744
527.8
547.594
584.448
634.611
701.611
780.93
868.834
958.931
1052.39
1147.33
1239.11
1325.12
1403.72
1469.91
1506.81
1504.37
1481.14
1416.75
1239.25
474.632
478.814
482.906
486.075
489.145
493.253
497.997
503.788
510.453
515.9
523.503
537.62
566.795
612.239
671.648
746.373
831.198
921.171
1011.38
1108.2
1201.48
1289.72
1371.66
1444.44
1501.76
1528.99
1524.18
1500.06
1444.35
1243.56
927.737
888.633
860.352
839.492
819.42
807.97
802.525
802.369
806.599
817.366
835.276
859.485
889.465
924.465
962.842
1003.01
1043.45
1083.42
1122.2
1158.94
1193.35
1224.68
1253.66
1280.3
1304.21
1325.92
1345.6
1363.32
1379.32
1393.8
1406.81
1418.41
1428.63
1437.54
1445.27
1451.61
1456.26
1459.33
1460.64
1460.2
1458.45
1454.66
1448.71
1440.78
1430.72
1418.22
1403.07
1385.21
1364.55
1341.33
1315.84
1287.96
1258.04
1226.26
1192.97
1158.52
1123.68
1088.45
1053.27
1018.64
984.785
951.957
920.083
888.911
858.36
828.392
799.002
770.444
742.989
716.993
692.807
670.571
650.283
631.797
615.064
600.052
586.832
575.191
565.101
556.246
548.532
541.76
535.686
530.232
525.289
520.616
516.347
512.156
508.263
504.574
501.12
498.097
495.284
492.812
490.675
488.793
487.049
485.732
484.511
483.904
483.318
482.7
482.013
481.567
481.4
481.058
480.364
480.048
480.21
480.755
482.055
483.031
483.519
484.05
485.408
487.236
487.211
486.354
486.321
487.074
485.68
483.359
481.76
479.769
476.814
1067.44
1031.05
997.506
970.563
948.374
934.201
928.679
929.486
937.366
953.132
976.524
1006.66
1042.4
1082.43
1125.08
1168.71
1211.88
1253.55
1292.94
1329.27
1362.37
1392.4
1419.67
1444.26
1466.35
1486.23
1504.09
1520.17
1534.67
1547.76
1559.5
1569.9
1579.02
1586.92
1593.57
1598.91
1602.8
1605.24
1606.19
1605.66
1603.69
1600.06
1594.79
1587.82
1579.07
1568.44
1555.89
1541.44
1525.09
1506.81
1486.87
1465.45
1442.61
1418.68
1393.77
1367.96
1341.4
1314.25
1286.81
1259.27
1231.73
1204.19
1176.47
1148.39
1119.94
1091.23
1061.86
1031.5
999.978
967.297
933.567
898.986
863.807
828.264
792.677
757.664
724.108
692.887
664.769
639.997
618.472
600.022
584.324
571.044
559.787
550.053
541.663
534.176
527.634
521.649
516.353
511.545
507.248
503.421
500.028
497.092
494.291
492.22
489.986
488.501
487.294
486.609
485.318
484.67
483.991
483.564
483.224
483.211
483.265
483.892
485.346
485.777
485.711
486.083
487.712
490.859
491.014
491.252
491.336
490.759
489.309
487.262
485.584
483.211
480.832
1187.36
1156.25
1125.16
1099.04
1078.79
1066.3
1062.16
1064.72
1075.12
1093.34
1118.83
1150.53
1187.06
1226.88
1268.38
1310.04
1350.63
1389.22
1425.17
1458.22
1488.24
1515.06
1539.14
1560.92
1580.47
1598.08
1613.99
1628.39
1641.41
1653.16
1663.67
1673.05
1681.38
1688.6
1694.7
1699.62
1703.32
1705.75
1706.88
1706.72
1705.24
1702.37
1698.08
1692.36
1685.15
1676.43
1666.19
1654.49
1641.39
1626.96
1611.35
1594.69
1577.08
1558.49
1539.06
1518.96
1498.36
1477.36
1456.33
1435.13
1413.67
1391.86
1369.57
1346.72
1323.02
1298.19
1272.15
1244.82
1216.1
1186.13
1154.96
1122.61
1089.05
1054.23
1018.15
980.904
942.662
903.73
864.609
826.09
789.041
753.971
721.232
691.091
663.733
639.296
617.718
598.614
581.922
567.39
554.881
544.089
534.851
526.924
520.026
514.132
509.01
504.786
501.267
498.511
496.363
494.655
492.589
491.783
490.859
490.058
489.674
489.417
489.515
490.666
491.709
491.837
491.429
491.861
493.796
497.484
497.823
498.084
497.368
496.134
494.679
492.412
489.774
487.212
484.986
1298.4
1272.4
1245.22
1222.41
1205.57
1197.39
1196.18
1201.89
1215.23
1235.86
1262.88
1295.1
1331.11
1369.39
1408.44
1447
1483.97
1518.63
1550.54
1579.56
1605.75
1629.07
1649.93
1668.74
1685.7
1701.05
1715.04
1727.8
1739.45
1750.11
1759.77
1768.42
1776.1
1782.88
1788.72
1793.58
1797.44
1800.28
1801.99
1802.56
1802
1800.25
1797.29
1793.11
1787.7
1781.06
1773.25
1764.32
1754.37
1743.33
1731.48
1718.81
1705.4
1691.3
1676.58
1661.31
1645.64
1629.54
1612.81
1595.61
1577.9
1559.64
1540.77
1521.46
1501.48
1480.45
1458.19
1434.52
1409.42
1382.71
1354.39
1324.5
1293.11
1260.13
1225.84
1190.15
1153.11
1114.87
1075.86
1036.45
997.067
958.102
919.734
881.992
844.92
808.285
773.078
739.227
707.366
677.883
650.923
626.735
605.418
586.913
570.855
557.052
545.346
535.485
527.246
520.578
515.287
511.026
507.354
505.009
503.086
501.464
499.979
499.235
499.115
499.968
500.461
500.384
499.857
500.266
502.136
505.393
505.649
505.637
503.835
502.322
500.749
498.232
495.076
491.413
488.641
1406.4
1384.56
1361.65
1343.04
1331.66
1328.08
1330.83
1340.33
1356.62
1379.15
1406.95
1438.78
1473.23
1508.92
1544.59
1579.37
1612.17
1642.54
1670.23
1695.21
1717.62
1737.72
1755.63
1771.79
1786.5
1799.93
1812.28
1823.67
1834.2
1843.95
1852.92
1861.18
1868.69
1875.39
1881.27
1886.36
1890.66
1894.09
1896.59
1898.1
1898.6
1898.14
1896.64
1894.11
1890.55
1886
1880.51
1874.13
1866.94
1858.97
1850.28
1840.9
1830.87
1820.24
1809.03
1797.05
1784.59
1771.54
1757.83
1743.44
1728.38
1712.65
1696.23
1678.75
1660.27
1640.7
1619.94
1597.94
1574.96
1550.48
1524.55
1497.12
1468.24
1437.88
1405.85
1372.27
1337.26
1301.04
1263.9
1226
1187.58
1148.64
1109.25
1069.46
1029.58
989.766
950.438
911.858
874.072
837.69
803.021
769.891
738.379
708.415
680.205
654.112
630.477
609.383
590.91
575.07
561.802
551.18
542.191
535.481
530.072
525.316
521.201
517.463
514.957
513.736
512.787
512.481
511.293
511.542
513.344
515.361
515.53
514.536
511.397
509.384
507.31
504.14
500.052
495.741
492.348
1510.36
1492.86
1474.63
1461.06
1455.43
1455.83
1462.84
1476.09
1494.89
1518.61
1546.34
1576.91
1609.04
1641.6
1673.42
1704.23
1732.86
1759.09
1782.84
1804.21
1823.39
1840.66
1856.18
1870.27
1883.23
1895.23
1906.4
1916.85
1926.66
1935.88
1944.55
1952.67
1960.2
1967.22
1973.6
1979.28
1984.2
1988.33
1991.69
1994.24
1995.93
1996.68
1996.65
1995.72
1993.95
1991.37
1988.05
1984.02
1979.3
1973.9
1967.81
1961.01
1953.48
1945.25
1936.29
1926.57
1916.1
1904.85
1892.78
1879.91
1866.28
1851.58
1835.98
1819.38
1801.61
1782.69
1762.62
1741.32
1718.53
1694.61
1669.4
1642.9
1615.33
1586.41
1556.11
1524.61
1491.97
1458.25
1423.47
1387.61
1350.81
1313.22
1274.96
1236.11
1196.76
1157.14
1117.67
1078.47
1039.67
1001.55
964.208
927.676
891.786
856.638
822.654
790.182
759.549
730.855
704.225
679.643
656.967
636.488
618.182
602.765
589.661
577.883
567.721
557.673
549.089
542.57
537.212
533.275
529.893
526.968
527.038
526.545
525.863
522.669
518.961
515.572
511.704
508.553
504.787
500.894
497.757
1609.45
1596.14
1583.07
1575.6
1574.2
1579.09
1590.06
1606.2
1626.72
1650.89
1677.83
1706.65
1735.96
1765.11
1793.24
1820.26
1845.1
1867.7
1888.15
1906.57
1923.22
1938.33
1952.18
1964.85
1976.66
1987.78
1998.31
2008.32
2017.86
2026.99
2035.73
2044.07
2051.99
2059.47
2066.37
2072.75
2078.52
2083.59
2087.98
2091.6
2094.46
2096.56
2097.88
2098.41
2098.35
2097.62
2096.26
2094.27
2091.62
2088.29
2084.25
2079.45
2073.83
2067.3
2059.81
2051.31
2041.81
2031.3
2019.79
2007.31
1993.89
1979.38
1963.8
1947.08
1929.16
1910.12
1889.6
1867.82
1844.79
1820.54
1795.14
1768.62
1740.97
1712.33
1682.72
1652.33
1620.91
1588.5
1555.2
1521.03
1486.06
1450.46
1414.29
1377.6
1340.6
1303.46
1266.07
1228.53
1190.88
1153.26
1115.74
1078.38
1041.58
1005.44
969.95
935.376
901.875
869.686
838.502
808.905
780.552
753.857
728.814
705.687
684.697
665.274
647.596
630.982
615.064
601.607
587.69
575.517
564.931
555.243
550.689
545.253
537.529
531.44
526.329
521.63
517.439
513.867
509.984
505.714
501.79
1702.54
1693.88
1686.79
1684.53
1687.7
1696.68
1710.65
1728.77
1750.23
1774.35
1800.08
1826.67
1853.28
1879.16
1904.02
1927.77
1949.48
1969.2
1987.09
2003.36
2018.22
2031.92
2044.69
2056.62
2067.86
2078.57
2088.89
2098.86
2108.53
2117.9
2126.99
2135.76
2144.22
2152.32
2160.02
2167.29
2173.99
2179.98
2185.45
2190.1
2194.1
2197.39
2200.02
2202.05
2203.53
2204.39
2204.67
2204.38
2203.4
2201.73
2199.33
2196.1
2191.83
2186.4
2179.77
2171.89
2162.75
2152.38
2140.85
2128.16
2114.31
2099.32
2083.1
2065.52
2046.59
2026.37
2004.8
1981.98
1958.01