/*--------------------------------*- C++ -*----------------------------------*\
| =========                 |                                                 |
| \\      /  F ield         | OpenFOAM: The Open Source CFD Toolbox           |
|  \\    /   O peration     | Version:  2112                                  |
|   \\  /    A nd           | Website:  www.openfoam.com                      |
|    \\/     M anipulation  |                                                 |
\*---------------------------------------------------------------------------*/
FoamFile
{
    version     2.0;
    format      ascii;
    arch        "LSB;label=32;scalar=64";
    class       volScalarField;
    location    "0.0091";
    object      T;
}
// * * * * * * * * * * * * * * * * * * * * * * * * * * * * * * * * * * * * * //

dimensions      [0 0 0 1 0 0 0];

internalField   nonuniform List<scalar> 
13875
(
1412
1535.57
1482.41
1487.51
1482.09
1483.45
1484.38
1483.55
1484.48
1484.87
1484.72
1484.2
1483.42
1483.91
1483.82
1483.86
1483.44
1484.73
1484.88
1483.11
1481.88
1487.68
1480.54
1532.57
1397.1
1307.02
1356.17
1318.93
1322.09
1316.63
1317.79
1321.84
1322.38
1323.75
1324.4
1324.16
1323.18
1317.88
1317.64
1318.34
1322.76
1322.95
1323.47
1322.31
1317.82
1316.7
1321.9
1319.6
1356.08
1304.04
1307.24
1340.07
1314.3
1311.77
1305.26
1305.48
1305.31
1304.05
1304.78
1305.74
1306.21
1306.11
1303.75
1304.07
1303.89
1305.78
1303.9
1305.94
1306.04
1305.09
1304.86
1311.06
1311.36
1336.39
1297.99
1317.37
1344.81
1314.68
1308.69
1306.04
1305.9
1304.25
1302.69
1303.69
1303.94
1303.13
1303.7
1303.84
1304.09
1304.04
1303.45
1302.42
1303.49
1304.2
1305.49
1305.35
1307.69
1313.96
1343.82
1311.65
1329.53
1342.13
1315.73
1312.44
1304.91
1305.54
1304.82
1303.01
1303.81
1304.11
1303.15
1303.57
1303.78
1304.24
1303.81
1303.29
1302.51
1303.99
1305.2
1304.88
1304.75
1311.75
1311.99
1338.31
1315.75
1332.22
1351.15
1318.82
1309.9
1307.95
1306.54
1304.66
1303.1
1303.97
1304.02
1303.1
1303.86
1304.12
1304.53
1304.3
1303.56
1302.63
1303.54
1304.26
1306.56
1307.27
1308.43
1319.02
1348.99
1326.03
1339
1360.49
1329.05
1317.58
1307.93
1307.61
1305.66
1304.04
1304.6
1304.54
1303.41
1303.79
1304.35
1304.85
1304.23
1303.58
1303.17
1304.57
1306.19
1306.49
1307.79
1317.61
1325.7
1358.14
1321.47
1359.75
1384.7
1344.05
1321.09
1316.36
1309.92
1306.7
1304.92
1305.15
1304.92
1303.88
1304.59
1305.13
1305.55
1305.23
1304.19
1303.76
1304.94
1306.15
1310
1315.3
1320.38
1341.51
1380.92
1350.48
1537.27
1508.47
1387.08
1350.6
1322.01
1316.27
1310.1
1307.4
1307.17
1306.31
1305.21
1305.63
1306.38
1306.9
1306.36
1305.67
1305.64
1307.24
1310.51
1314.18
1321.29
1349.21
1382.71
1505.66
1521.79
1835.02
1574.48
1427.16
1358.16
1338.19
1320.11
1314.61
1310.58
1309.49
1308.85
1307.96
1308.31
1309.08
1309.61
1309.23
1308.64
1308.88
1310.96
1314.1
1320.58
1337.04
1357.13
1424.84
1566.55
1826.89
2507.53
1804.77
1517.2
1406.52
1350
1331.43
1325.65
1318.04
1315.9
1314.85
1313.41
1313.61
1314.33
1315
1314.81
1314.69
1315.24
1317.73
1326.11
1330.01
1348.65
1419.34
1502.11
1797.84
2429.21
2812.86
2301.71
1736.54
1463.9
1427.1
1359.49
1338.97
1331.35
1328.67
1327.12
1325.25
1325.34
1325.75
1326.46
1326.52
1327.07
1328.33
1331.81
1339.72
1371.49
1405.44
1457.22
1731.33
2306.13
2837.3
2787.11
2655.38
2357.75
2204.84
1523.1
1413.31
1395.73
1372.29
1363.66
1358.02
1354.31
1353.7
1353.46
1354.21
1355.04
1357.83
1363.81
1374.99
1399.48
1421.71
1567.44
2234.94
2245.97
2687.15
2766.52
2723.55
2662.03
2745.52
2786.59
2047.18
1808.81
1518.66
1476.94
1459.2
1448.03
1443.17
1441.98
1441.54
1442.27
1443.61
1448.1
1459.21
1479.15
1541.89
1923.7
2101.38
2803.35
2792.67
2702.97
2701.6
2583.4
2640.18
2686.8
2687.55
2582.17
2358.6
2033.24
1961.05
1864.7
1765.55
1731.2
1720.23
1716.59
1718.07
1724.84
1749.07
1841.31
1962.55
1984.04
2422.82
2637.66
2735.94
2678.24
2652.25
2625.86
2500.95
2537.81
2626.83
2683.84
2653.49
2682.48
2880.78
2945.03
2931
3031.4
3113.12
3135.99
3146.42
3140.36
3122.76
3056.44
2904.43
2942.04
2900.01
2717.35
2661.16
2706.51
2624.64
2557.93
2533.21
2314.13
2398.8
2474.55
2530.52
2601.79
2727.16
3036.11
3413.77
3592.25
3682.63
3697.36
3690.78
3688.47
3691.81
3700.7
3701.92
3599.14
3419.3
3053.04
2739.17
2616.14
2565.08
2469.39
2404.35
2328.88
2024.28
2148.24
2300.5
2611.94
2793.74
2828.09
2960.14
3312.38
3529.34
3642.08
3672.73
3672.38
3672.24
3674.4
3675.59
3647.42
3502.53
3291.82
2964.75
2842.66
2808.55
2561.59
2269.44
2139.58
2023.76
1812.73
1878.62
2010.95
2238.18
2710.51
2839.04
2880.34
3107.97
3358.67
3499.09
3544.7
3558.68
3562.66
3562.41
3549.89
3510.46
3361.27
3120.64
2920.52
2925.42
2675.73
2202.95
2007.1
1883.73
1814.14
2456.5
2343.09
2105.78
2194.12
2503.26
2689.02
2700.94
2842.35
3080.62
3280.83
3389.35
3431.6
3441.93
3434.28
3393.02
3279.63
3068.09
2852.6
2730.18
2714.68
2483
2221.97
2139.66
2343.61
2450
3253.36
3426.25
2746.2
2304.76
2375.83
2532.92
2551.61
2660.22
2883.6
3108.9
3251.76
3307.92
3317.47
3307.56
3246.04
3090.51
2855.78
2656.87
2559.41
2541.12
2358.85
2326.15
2810.45
3481.5
3261.39
3634.89
3577.72
2820.22
2214.96
2213.24
2370.15
2419.79
2524.03
2735.57
2964.54
3118.51
3179.87
3191.38
3175.12
3102.62
2932.47
2700.55
2521.21
2417.39
2368.54
2190.06
2248.97
2900.95
3621.99
3677.23
3499.25
3116.5
2489.75
2061.46
2060.44
2237.27
2311.37
2416.21
2605.43
2829.99
2989.02
3055.49
3066.54
3050.42
2974.64
2804.25
2582.14
2415.6
2298.52
2234.68
2035.54
2055.11
2475.34
3126.67
3530.51
3515.04
2960.72
2250.64
1905.4
1973.57
2140.08
2209.34
2317.63
2502.29
2715.32
2866.6
2932.16
2946.4
2926.68
2852.44
2689.31
2476.27
2318.11
2201.03
2128.99
1942.61
1893.32
2254.88
2980.03
3544.86
3452.98
2787.44
2098.43
1822.29
1928.27
2068.63
2120.78
2231.27
2405.08
2611.66
2756.96
2819.75
2830.47
2812.86
2740.02
2583.87
2381.08
2227.22
2117.68
2063.87
1895.53
1808.01
2111.46
2832.46
3480.76
3421.8
2747.89
2042.03
1827.27
1904.48
2002.25
2042.93
2149.17
2320.82
2511.95
2648.89
2707.85
2722.06
2702.78
2635.72
2489.33
2296.97
2148.3
2043.53
1999.57
1877.77
1817.23
2038.19
2761.05
3454.45
3347.75
2600.82
1964.46
1828.9
1881.58
1956.91
1977.6
2084.84
2245.09
2427.88
2552.92
2608.23
2618.4
2602.58
2538.86
2406.13
2225.42
2079.72
1977.45
1961.5
1858.14
1823.07
1970.66
2613.01
3366.53
3316.92
2561.67
1973.09
1864.68
1872.89
1908.63
1916.49
2023.25
2183.74
2349.11
2460.38
2509.38
2522.73
2504.74
2446.95
2323.12
2154.9
2017.79
1917.35
1912.36
1853.92
1850.73
1973.89
2607.03
3360.59
3311.41
2536.79
1940.43
1853.3
1841.26
1878.17
1868.6
1975.57
2119.12
2274.86
2375.21
2422.48
2431.72
2418.42
2365.89
2260.85
2104.98
1970.82
1871.05
1883.24
1830.53
1852.04
1933.08
2500.27
3285.31
3276.94
2542.95
1975.92
1888.95
1841.53
1851.39
1826.64
1929.48
2072.32
2209.63
2297.08
2336.39
2348.3
2333.11
2285.89
2188.02
2046.44
1925.15
1826.39
1865.64
1828.73
1871.1
1959.09
2526.48
3273.01
3189.44
2455.56
1945.38
1887
1804.45
1828.08
1794.37
1903.87
2025.43
2151.82
2225.41
2262.79
2269.14
2257.98
2215.58
2135.23
2005.23
1890.22
1793.39
1835.43
1803.3
1873.19
1936.75
2467.04
3218.45
3155.44
2451.95
1994.2
1912.45
1809.77
1804.1
1770
1866.26
1983.2
2091.7
2157.61
2187.78
2197.73
2186.55
2149.71
2075.69
1961.75
1864.07
1767.45
1820.15
1805.4
1892.04
1969.67
2430.54
3160.42
3096.43
2398.41
1996.02
1896.82
1783.97
1774.43
1744.43
1850.56
1945.64
2045.65
2097.96
2126.59
2130.28
2121.9
2090.34
2033.69
1927.88
1837.62
1742.4
1782.54
1788.82
1887.19
1964.91
2395.45
3111.02
3057.19
2375.76
2028.26
1916.46
1805.75
1760.01
1733.17
1825.51
1911.05
1994.14
2040.71
2062.22
2070.05
2062.14
2032.65
1979.75
1889.09
1818.06
1723.73
1772.91
1796.24
1903.42
2026.04
2386.96
3082.91
3017.58
2341.48
2017.52
1907.84
1785.26
1728.31
1701.45
1811.72
1877.46
1953.59
1989.08
2011.37
2013.18
2007.28
1984.98
1948.01
1863.02
1802.2
1697.2
1738.22
1797.84
1906.06
2015.44
2335.69
3021.54
3002.02
2335.55
2022.76
1928.11
1804.67
1734.3
1699.91
1789.19
1848.69
1908.69
1940.68
1956.19
1962.76
1957.72
1932.91
1897.41
1830.45
1789.82
1683.85
1734.11
1807
1925.76
2029.08
2338.13
3006.82
2954.52
2289.18
2008.86
1941.85
1792.05
1715.68
1671.76
1777.05
1820.54
1877.69
1898.13
1914.7
1914.77
1909.99
1894.38
1873.07
1803.08
1770.71
1662.13
1721.54
1795.46
1944.5
2009.44
2302.53
2972.52
2937.91
2298.79
2014.66
1978.21
1812.6
1729.98
1674.01
1760.13
1792.79
1835.38
1855.67
1867.5
1872.68
1870.39
1849.61
1826.88
1778.56
1762.72
1660.28
1726.45
1817.57
1983.52
2015.31
2289.69
2935.99
2901.12
2276.11
1993.12
1992.33
1816.82
1716.93
1657.35
1748.6
1764.58
1810.6
1821.47
1833.89
1832.69
1828.91
1818.62
1807.92
1747.02
1743.27
1650.27
1717.31
1815.38
1998.73
1981.33
2270.56
2911.08
2853.24
2268.29
1976.36
1991.3
1842.84
1745.26
1673.92
1739.41
1743.62
1771.46
1784.36
1794.49
1797.06
1797.59
1778.6
1764.48
1726.98
1736.63
1658.76
1737.9
1846.12
1992.39
1966.47
2281.18
2882.97
2827.38
2257.81
1946.25
1980.71
1881.16
1732.69
1664.96
1728.61
1717.37
1753.55
1756.75
1765.31
1763.45
1761.14
1755.49
1753.45
1697.53
1721.27
1667.43
1726.97
1877.2
1988.61
1937.07
2242.58
2832.86
2793.19
2252.27
1935.84
1976.81
1928.77
1771.43
1704.38
1732.37
1704.24
1717.69
1723.35
1733.08
1733.03
1736.28
1718.23
1716.17
1687.39
1726.12
1692.84
1767.85
1943.78
1980.52
1929.48
2248.36
2798.28
2764.17
2229.56
1914.94
1956.54
1924.1
1784.1
1700.61
1728.57
1683.33
1707.57
1703.2
1705.64
1704.61
1703.12
1701.43
1709.49
1660.31
1715.78
1701.39
1776.46
1941.44
1964.94
1914.24
2231.02
2765.34
2733.14
2227.11
1913.94
1930.27
1915.2
1839.15
1745.26
1750.12
1687.58
1679.71
1673.5
1682.92
1678.31
1684.41
1667.84
1682.1
1671.05
1735.35
1730.87
1832.33
1931.86
1942.93
1909.34
2220.44
2730.6
2713.18
2213.99
1903.16
1903.38
1904.5
1901.18
1760.5
1744.14
1676
1679.57
1660.72
1654.04
1654.61
1654.3
1658.94
1684.63
1655.08
1731.63
1758.16
1905.61
1918.63
1914.08
1902.66
2213.8
2708.54
2675.5
2194.67
1899.27
1881.29
1877.61
1885.44
1819.13
1769.41
1700.87
1667.17
1639.75
1643.36
1633.58
1643.42
1629.86
1663.55
1679.68
1758.9
1815.8
1901.31
1895.23
1893.02
1908.19
2205.01
2681.01
2658.5
2192.58
1893.27
1862.97
1851.52
1874.47
1903.82
1793.63
1691.08
1680.3
1644.95
1620.45
1617.61
1620.85
1642.57
1684.69
1666.39
1774.32
1900.54
1881.61
1866.34
1873.09
1893.21
2189.37
2659.69
2610
2172.59
1890.1
1853.59
1827.36
1861.24
1889.15
1848.91
1726.44
1671.24
1632.57
1628.79
1603.22
1626.98
1619.05
1672.24
1712.52
1835.26
1898.32
1868.4
1842.18
1860.4
1894.35
2178.02
2611.48
2568.92
2155.16
1873.43
1839.49
1804.04
1823.5
1873.24
1937.86
1735.14
1698.58
1649.99
1614.8
1603.79
1613.89
1646.54
1699.27
1713.76
1925.59
1880.18
1826.53
1819.29
1848.98
1874.81
2159.57
2574.9
2399.05
2106.11
1855.43
1831.97
1791.06
1796.03
1856.43
1920.34
1820.13
1708.21
1640.82
1630.49
1606.37
1629.41
1622.52
1708.77
1798.82
1924.9
1862.35
1800.04
1798.33
1837.14
1856.46
2107.15
2404.42
997.356
1001.97
1011.69
974.819
912.057
836.202
768.418
704.246
645.369
585.598
531.722
489.127
460.593
442.35
432.101
425.829
421.777
419.106
417.167
415.647
414.721
413.723
412.706
411.946
410.756
408.456
404.986
401.239
395.368
389.157
1011.32
1032.54
1034.89
989.607
914.814
836.132
767.165
705.485
652.258
604.227
559.172
518.275
487.83
467.139
454.392
445.821
439.943
435.924
432.489
429.595
427.27
424.97
423.051
421.423
419.354
416.599
412.739
408.014
402.212
395.865
1018.07
1048.4
1044.68
992.522
911.472
829.056
759.334
699.99
650.543
607.118
567.283
528.414
498.529
478.002
463.481
453.989
447.401
442.847
438.79
435.256
431.975
429.101
426.766
424.785
422.521
419.676
415.488
410.005
404.331
397.828
1041.54
1068.35
1059.89
1001.48
914.904
829.758
758.798
699.119
651.171
611.316
578.037
546.293
515.999
493.763
478.642
468.49
461.074
455.367
449.837
444.985
440.841
437.396
434.669
432.262
429.683
426.543
421.986
416.464
410.436
404.202
1058.57
1086.25
1074.97
1011.95
921.705
833.213
759.649
699.023
651.411
612.375
581.543
554.038
527.495
505.548
489.599
478.109
469.34
461.849
455.236
449.601
445.061
441.345
438.589
436.024
433.227
429.75
424.881
419.384
413.117
407.005
1078.7
1105.22
1090.92
1024.43
930.285
839.277
762.668
699.847
651.065
612.043
582.131
556.85
534.122
514.267
498.593
487.025
477.854
469.723
462.76
456.664
451.702
447.828
445.222
442.652
439.522
435.449
430.421
424.715
418.277
412.422
1093.77
1123.3
1106.89
1038.58
942.572
849.163
768.573
702.347
651.446
611.559
581.699
557.47
536.484
519.807
504.93
493.113
483.19
474.318
467.002
460.557
455.369
451.595
448.857
446.31
442.819
438.29
433.237
427.779
421.582
415.352
1112.68
1142.17
1124.63
1055.62
957.422
859.949
777.527
708.234
654.065
611.757
580.891
557.204
536.969
522.488
509.117
498
488.357
479.524
472.19
465.804
460.619
456.948
454.091
451.555
447.586
442.992
437.834
432.403
426.125
420.561
1129.93
1160.89
1143.84
1074.84
975.145
875.071
789.986
718.726
660.741
614.981
581.55
556.871
537.233
523.572
512.111
501.812
492.526
483.715
476.329
469.932
464.733
460.948
457.732
454.656
450.694
446.518
441.296
435.79
429.276
423.137
1144.93
1179.62
1163.84
1095.35
995.558
894.866
807.602
733.679
671.937
622.446
583.862
557.363
537.555
524.824
514.993
506.301
497.898
489.49
481.937
474.94
469.623
465.579
462.006
458.25
454.379
449.92
445.127
439.203
432.507
427.916
1161.38
1198.87
1183.65
1116.73
1019.1
919.233
830.378
753.69
688.588
634.746
590.417
560.639
539.436
526.128
516.984
509.311
501.375
493.368
485.677
478.95
473.677
469.181
465.225
461.22
457.139
452.28
447.426
441.668
435.306
430.173
1176.27
1216.93
1203.13
1139.74
1045.53
947.856
858.131
778.936
710.577
651.817
602.207
568.44
543.712
528.194
518.595
511.779
504.952
497.588
489.985
483.246
477.976
473.205
468.837
464.586
459.938
454.943
450.07
444.579
438.624
434.06
1189.54
1233.91
1222.68
1164.77
1074.92
980.038
891.091
810.495
737.913
674.31
620.003
581.072
551.82
532.452
520.672
513.42
507.481
501.367
494.277
487.342
481.975
476.563
471.449
466.324
461.536
456.693
451.895
446.428
440.955
436.551
1202.96
1250
1242.74
1191.71
1107.58
1015.98
927.759
846.408
769.007
702.142
644.124
599.276
564.79
540.363
524.853
515.883
509.919
505.285
499.425
491.79
485.56
479.935
473.828
468.434
463.621
458.661
453.808
448.42
443.042
439.014
1213.61
1265.76
1263.14
1219.77
1142.16
1055.13
968.689
885.548
804.204
735.233
674.506
623.644
583.145
552.978
532.301
519.81
512.807
509.047
502.836
494.996
488.039
481.804
475.317
469.541
464.621
459.754
455.066
450.049
445.077
441.851
1222.78
1281
1283.33
1247.98
1177.77
1097.02
1013.53
929.732
845.857
774.819
711.403
654.769
607.677
571.305
544.444
526.776
517.204
511.72
505.783
498.383
490.929
483.719
477.112
470.935
465.944
461.111
456.597
451.796
447.407
444.268
1232.56
1295.63
1302.82
1275.09
1214.24
1140.57
1060.99
977.686
893.605
819.458
753.658
692.136
638.816
596.124
562.433
538.274
523.581
514.784
508.367
501.27
493.588
484.192
477.619
471.31
466.233
462.108
457.477
452.731
448.51
445.41
1239.92
1309.05
1321.05
1301.85
1251
1184.69
1109.97
1027.19
944.503
868.388
800.114
735.27
676.477
627.505
586.532
555.698
533.977
520.114
511.419
504.069
496.002
486.496
479.688
473.387
467.575
463.267
458.935
454.67
450.603
447.482
1247.23
1322.11
1338.06
1328.01
1286.73
1228.38
1158.45
1077.93
997.77
921.884
849.724
782.668
719.711
664.99
616.938
578.424
549.52
528.487
515.003
506.28
497.417
489.545
481.521
475.121
469.026
463.487
459.13
455.345
451.752
449.062
1249.4
1332.99
1354.23
1352.63
1321.04
1270.91
1206.35
1129.42
1052.38
978.068
901.654
832.519
767.303
707.59
652.848
606.712
569.176
540.185
520.525
508.199
499.894
492.263
483.522
476.65
469.811
463.827
458.836
454.799
451.235
449.155
1254.18
1343.02
1370.77
1375.12
1353.93
1311.77
1253.09
1180.43
1106.62
1032.85
955.66
883.83
817.82
754.083
693.133
639.239
593.88
556.619
529.299
511.892
502.696
494.443
485.624
477.764
470.232
463.469
458.294
454.423
451.424
449.06
1253.9
1351.55
1386.32
1395.98
1384.9
1350.62
1297.67
1230.27
1159.94
1086.52
1010.49
936.774
869.979
803.205
736.783
675.856
622.916
577.939
542.68
519.338
505.929
496.827
487.989
478.984
470.753
463.859
458.961
455.378
452.32
449.618
1256.03
1359.61
1401.28
1415.79
1412.82
1386.52
1339.88
1278.48
1211.2
1138.62
1064.86
991.729
923.008
852.74
782.394
715.063
655.727
603.755
561.356
530.285
510.752
498.997
489.356
480.1
471.637
464.497
459.564
455.902
452.793
450.503
1241.82
1368.55
1416.16
1435.79
1438.24
1419.05
1379.51
1324.37
1260.27
1189.74
1118.53
1047.08
975.197
901.233
827.791
755.246
691.054
633.393
584.221
544.784
517.698
501.357
491.265
482.06
473.4
465.849
460.538
456.452
453.081
450.931
1253.48
1394.94
1435.52
1455.8
1461.75
1448.66
1416.29
1367.5
1307.29
1240.39
1170.21
1097.12
1024.93
947.42
872.578
797.02
728.887
666.59
611.073
563.384
527.775
505.81
493.437
484.192
475.47
467.799
461.797
457.072
453.227
451.211
387.066
393.068
398.519
402.755
405.816
407.556
408.315
409.049
409.967
410.918
411.88
413.152
415.194
418.12
422.39
429.091
441.063
460.958
492.706
539.389
595.545
654.326
712.346
776.662
845.882
923.156
988.647
1026.64
1018.15
1012.53
393.621
399.962
405.579
410
413.385
415.784
417.412
419.17
421.116
423.244
425.574
428.273
431.625
435.824
441.903
450.734
465.336
488.242
521.998
564.878
609.049
656.65
709.851
771.171
842.011
923.332
1000.25
1047.22
1046.93
1025.84
395.546
402.079
408.001
412.703
416.143
418.705
420.779
423.005
425.315
427.741
430.741
434.42
438.408
443.121
449.929
459.982
475.393
498.759
531.882
571.499
609.689
652.587
701.637
761.112
832.661
918.071
1002.2
1055.8
1062.07
1032.22
402.044
408.233
414.186
419.442
423.136
425.75
428.145
430.808
433.381
436.559
440.646
445.679
451.109
456.799
464.301
474.763
490.913
516.001
547.689
578.797
611.269
651.418
698.693
759.118
832.328
920.135
1010.1
1070.06
1080.57
1054.49
405.054
411.061
417.031
422.487
426.487
429.283
431.803
434.624
437.284
441.074
445.555
451.324
457.994
465.427
474.292
485.977
502.785
527.146
553.146
580.498
611.447
649.09
696.983
759.009
834.769
925.492
1019.34
1085.07
1097.92
1071.24
410.644
416.553
423.107
428.441
432.704
435.89
438.387
441.196
444.04
447.82
452.545
458.796
465.955
474.048
483.263
495.055
512.044
532.223
554.595
580.24
609.147
647.238
696.868
760.43
840.158
933.181
1030.56
1099.65
1115.83
1090.66
413.618
419.785
425.984
431.522
436.04
439.762
442.35
444.978
448.017
451.881
456.792
463.084
470.714
479.635
489.625
501.694
517.352
533.687
554.69
578.251
606.989
646.981
698.187
765.643
847.966
945.092
1044.21
1114.62
1133.12
1105.58
418.88
424.358
430.486
436.149
440.962
445.186
447.905
450.352
453.406
457.379
462.311
468.256
475.83
484.69
494.352
505.814
519.216
533.826
553.716
576.638
606.672
648.62
703.409
773.521
858.07
958.955
1060.54
1131.56
1151.13
1123.99
421.683
427.712
433.981
439.625
444.519
448.717
452.087
454.34
457.583
461.64
466.641
472.442
479.811
488.58
498.078
508.571
519.9
533.529
552.645
576.572
608.599
654.185
712.943
785.483
872.434
975.586
1078.67
1150.02
1169.09
1140.64
426.762
431.273
437.695
443.289
448.264
452.455
456.136
458.863
462.275
466.348
471.387
477.44
484.556
493.062
501.881
510.736
521.019
533.722
552.836
578.473
615.049
664.727
727.411
802.621
891.742
995.321
1098.26
1169.4
1187.28
1155.29
429.384
434.276
440.452
445.974
450.55
455.203
458.863
462.331
465.952
470.188
475.071
481.641
488.888
496.998
504.948
512.812
522.314
535.082
555.379
584.091
627.056
680.812
746.943
825.046
915.763
1018.3
1118.83
1188.53
1206.15
1171.53
433.356
437.689
443.57
448.79
453.273
457.985
462.239
466.326
470.275
474.862
479.491
486.241
493.861
501.255
507.537
514.406
524.117
538.72
562.246
595.074
643.765
702.731
771.992
852.436
944.056
1044.3
1141.19
1207.34
1223.72
1186.39
436.024
440.294
445.539
450.647
455.265
459.94
464.389
469.234
474.041
479.01
484.072
490.777
498.069
504.546
510.045
516.749
527.747
545.874
573.95
612.225
665.956
730.157
803.156
885.243
976.395
1073.22
1165.81
1226.46
1240.14
1199.36
438.62
442.382
447.547
452.608
457.332
462.135
466.862
472.107
477.906
483.006
489.189
496.321
502.522
507.432
512.833
520.927
534.994
558.111
591.424
635.847
693.982
761.637
839.192
921.581
1011.15
1105.47
1192.19
1246.03
1255.77
1212.67
441.241
444.581
449.225
453.961
458.613
463.416
468.354
473.861
480.286
485.81
492.914
500.415
506.462
510.596
516.911
528.263
547.198
576.168
615.415
665.958
727.05
797.209
878.832
961.699
1050.38
1139.86
1219.75
1266.09
1271.19
1222.84
444.003
447.063
451.3
455.842
460.225
465.066
470.291
476.013
482.431
489.042
496.539
503.783
509.776
515.333
523.861
540.044
565.19
600.689
646.581
702.758
766.561
838.419
923.52
1006.72
1092.16
1175.17
1247.72
1286.25
1285.89
1232.24
445.415
448.459
452.442
456.983
461.71
466.318
471.79
478.074
484.431
492.209
499.791
506.7
513.151
521.777
535.193
557.846
589.966
631.855
684.529
745.543
811.577
885.886
971.578
1054.58
1135.76
1211.07
1274.92
1305.51
1300.33
1241.6
447.263
450.458
454.312
457.687
463.05
468.2
473.986
480.366
487.166
495.453
502.942
510.059
518.513
532.148
552.634
582.711
621.828
669.749
728.28
792.8
860.786
937.141
1020.6
1104.37
1180.17
1247.35
1301.26
1323.94
1313.72
1249.49
448.796
451.646
454.995
458.908
463.211
468.758
474.897
481.519
489.185
497.185
506.069
514.599
527.564
547.905
576.21
613.551
659.959
713.512
776.434
843.131
914.297
990.353
1071.84
1153.85
1224.01
1283.27
1327.34
1340.94
1326.82
1256.55
448.627
451.526
454.888
459.497
463.936
468.948
475.177
482.709
490.921
499.852
508.683
520.556
539.996
568.424
605.078
650.249
703.149
761.628
826.869
895.413
970.82
1045.37
1123.17
1201.97
1266.63
1318.03
1352.21
1356.94
1337.77
1258.75
447.805
450.457
454.168
458.831
463.406
469.285
476.056
483.785
493.569
502.789
513.109
529.826
556.791
593.457
638.225
691.302
750.211
812.385
878.383
949.049
1026.04
1099.65
1174.19
1248.53
1307.81
1351.51
1375.21
1373.01
1348.02
1263.35
447.516
450.211
453.956
458.284
463.737
470.722
478.017
486.326
495.186
506.419
519.954
543.372
578.366
622.51
674.942
735.081
799.609
864.308
930.603
1003.62
1079.8
1153.48
1224.45
1293.23
1347.29
1383.14
1396.4
1388.57
1356.53
1263.12
447.836
450.324
454.453
458.916
464.331
472.101
480.072
488.932
497.94
510.251
529.953
561.21
603.442
654.733
713.911
780.225
849.293
917.074
984.637
1057.99
1132.12
1205.27
1273.16
1335.81
1383.84
1411.82
1416.73
1403.56
1364.21
1265.58
448.398
450.84
455.156
459.686
465.452
473.346
482.084
490.854
500.903
516.885
543.457
582.48
631.655
688.63
753.075
824.903
897.196
969.655
1040.3
1111.87
1183.03
1254.2
1319.43
1375.88
1417.21
1438.19
1436.8
1418.33
1372.76
1252.92
449.518
451.592
455.781
460.564
466.749
474.998
483.833
493.056
505.324
526.701
561.213
607.687
662.592
724.286
792.814
868.539
943.139
1020.02
1091.6
1164.34
1233.99
1301.12
1363.13
1413.47
1447.55
1462.22
1457.38
1437.01
1398.43
1265.06
901.747
894.935
899.514
906.966
922.377
942.653
967.698
998.39
1033.35
1072.11
1113
1155.15
1197.66
1239.64
1280.37
1319.33
1356.31
1391.01
1423.06
1452.46
1479.18
1503.37
1525.21
1544.84
1562.39
1578.02
1591.88
1604.09
1614.8
1624.13
1632.16
1638.94
1644.6
1649.45
1652.7
1654.89
1655.98
1655.95
1655.03
1652.92
1649.73
1645.47
1640.01
1633.45
1625.69
1616.71
1606.46
1594.88
1581.91
1567.46
1551.47
1533.88
1514.66
1493.8
1471.3
1447.2
1421.54
1394.35
1365.76
1335.79
1304.54
1272.21
1238.91
1204.81
1170.14
1135.16
1100.09
1065.04
1030.07
995.129
960.302
925.541
890.99
856.717
823.017
790.198
758.568
728.393
699.972
673.227
648.38
625.325
604.149
584.99
567.788
552.674
539.474
528.1
518.354
510.167
503.052
497.249
492.19
487.806
484.149
480.689
477.528
475.04
472.227
469.678
468.257
466.741
464.959
463.23
461.823
460.824
459.968
459.084
457.91
456.509
455.814
455.902
455.67
454.985
454.917
455.13
456.179
456.015
455.6
455.333
454.798
454.169
453.691
452.489
450.939
1017.67
1022.94
1034.6
1051.21
1073.59
1100.58
1131.41
1165.74
1202.65
1241.24
1280.61
1319.94
1358.55
1395.91
1431.61
1465.39
1497.09
1526.74
1554.07
1579.07
1601.84
1622.37
1640.92
1657.63
1672.65
1686.08
1698.02
1708.58
1717.87
1725.97
1732.94
1738.79
1743.61
1747.38
1750.05
1751.64
1752.22
1751.84
1750.5
1748.18
1744.9
1740.69
1735.42
1729.13
1721.84
1713.49
1704.03
1693.43
1681.64
1668.67
1654.47
1639.02
1622.32
1604.34
1585.12
1564.69
1543.05
1520.2
1496.14
1470.9
1444.57
1417.2
1389.13
1360.33
1330.84
1300.77
1270.09
1238.92
1207.33
1175.33
1142.96
1110.27
1077.35
1044.32
1011.31
978.434
945.822
913.612
881.956
850.898
820.428
790.437
760.984
731.906
703.842
676.743
650.914
626.785
604.596
584.608
566.758
551.077
537.39
525.447
515.094
506.392
498.799
492.397
486.868
482.124
478.214
474.954
472.151
469.492
467.293
465.525
463.982
462.526
461.191
459.533
458.479
458.324
458.021
457.271
457.162
457.442
458.534
458.092
457.314
456.911
456.27
455.603
455.072
454.07
452.767
1115.75
1126.63
1143.27
1164.72
1190.81
1220.71
1253.58
1288.69
1325.33
1362.71
1400.11
1436.92
1472.65
1506.88
1539.31
1569.78
1598.24
1624.68
1649
1671.33
1691.74
1710.24
1726.89
1741.92
1755.47
1767.62
1778.46
1788.08
1796.53
1803.9
1810.22
1815.57
1819.88
1823.24
1825.63
1827
1827.46
1827.07
1825.78
1823.62
1820.59
1816.7
1811.92
1806.25
1799.67
1792.14
1783.66
1774.26
1763.69
1752.12
1739.51
1725.82
1711.07
1695.19
1678.39
1660.62
1641.88
1622.21
1601.61
1580.14
1557.86
1534.83
1510.86
1486.02
1460.36
1433.98
1407.25
1379.99
1352.13
1323.7
1294.67
1265.08
1234.99
1204.37
1173.39
1142.18
1110.82
1079.4
1048
1016.58
985.159
953.682
922.201
890.773
859.704
829.214
799.04
770.033
742.157
715.025
688.867
663.776
639.928
617.571
596.731
577.821
560.595
545.251
531.794
519.841
509.64
500.795
493.469
487.073
481.88
477.693
474.307
471.517
469.273
467.086
465.527
465.239
464.675
463.483
463.304
463.86
464.499
463.661
462.516
461.433
460.513
459.514
458.548
457.495
456.556
1215.12
1230.29
1251.32
1276.77
1305.85
1337.7
1371.53
1406.58
1442.16
1477.72
1512.7
1546.68
1579.34
1610.44
1639.83
1667.41
1693.14
1716.99
1739
1759.3
1777.92
1794.87
1810.2
1824.08
1836.65
1847.99
1858.15
1867.19
1875.16
1882.14
1888.17
1893.24
1897.43
1900.73
1903.13
1904.63
1905.25
1905.15
1904.25
1902.58
1900.16
1896.98
1893.01
1888.26
1882.68
1876.26
1868.97
1860.8
1851.69
1841.66
1830.71
1818.86
1806.15
1792.38
1777.81
1762.42
1746.17
1729.09
1711.19
1692.58
1673.26
1653.22
1632.43
1610.86
1588.6
1565.66
1541.79
1517.07
1491.48
1465.24
1438.42
1411
1382.93
1354.44
1325.52
1296.1
1266.26
1235.92
1205.2
1174.22
1143.11
1111.87
1080.54
1049.12
1017.71
986.451
955.209
924.315
893.754
863.256
833.68
804.741
776.313
748.816
722.126
696.389
671.39
647.233
624.064
601.889
581.391
562.466
545.716
530.856
518.251
507.743
498.939
491.985
486.108
481.52
478.174
476.843
475.196
473.267
472.766
473.344
473.125
472.162
470.585
468.883
467.083
465.402
463.733
462.51
461.532
1316.85
1335.47
1360.26
1388.78
1420.06
1453.16
1487.27
1521.75
1556.03
1589.63
1622.2
1653.53
1683.47
1711.87
1738.65
1763.77
1787.23
1809.06
1829.36
1848.23
1865.59
1881.43
1895.84
1908.99
1920.99
1931.88
1941.69
1950.47
1958.27
1965.17
1971.17
1976.33
1980.66
1984.17
1986.87
1988.78
1989.91
1990.35
1990.16
1989.29
1987.77
1985.59
1982.71
1979.11
1974.75
1969.61
1963.66
1956.89
1949.25
1940.75
1931.38
1921.15
1910.1
1898.19
1885.49
1872.02
1857.83
1842.93
1827.32
1810.88
1793.76
1775.84
1757.02
1737.28
1716.81
1695.56
1673.49
1650.65
1627.05
1602.61
1577.24
1551.05
1523.97
1496.37
1468.33
1439.86
1410.96
1381.75
1352.27
1322.5
1292.35
1261.81
1231.02
1200.01
1168.84
1137.62
1106.46
1075.36
1044.4
1013.46
982.79
952.315
921.745
891.865
862.197
832.602
803.233
774.12
745.446
717.33
690.323
664.352
639.677
616.016
593.663
573.021
553.958
538.072
524.312
512.699
504.364
498.711
494.414
489.264
485.87
484.919
484.078
482.302
480.788
478.867
475.78
472.907
470.763
469.352
468.125
1419.13
1440.56
1468.46
1499.16
1531.69
1565.19
1598.97
1632.49
1665.26
1697.03
1727.61
1756.84
1784.63
1810.94
1835.74
1859.05
1880.91
1901.39
1920.66
1938.67
1955.3
1970.53
1984.46
1997.27
2009.1
2019.89
2029.67
2038.48
2046.39
2053.44
2059.69
2065.16
2069.85
2073.81
2077.06
2079.63
2081.56
2082.92
2083.66
2083.88
2083.53
2082.54
2080.91
2078.58
2075.53
2071.71
2067.12
2061.71
2055.46
2048.35
2040.36
2031.49
2021.75
2011.15
1999.76
1987.59
1974.7
1961.08
1946.72
1931.57
1915.64
1898.91
1881.33
1862.66
1843.04
1822.51
1800.96
1778.41
1754.99
1730.84
1705.97
1680.45
1654.42
1627.6
1600.09
1571.82
1543.23
1514.38
1485.31
1456.03
1426.55
1397.01
1367.39
1337.63
1307.72
1277.61
1247.29
1216.95
1186.47
1155.8
1125.05
1094.22
1063.44
1032.74
1001.95
970.89
939.592
908.547
877.56
846.555
815.93
785.705
756.003
726.802
698.16
670.843
644.499
620.279
597.629
576.075
557.749
543.638
533.118
522.211
513.325
507.686
501.439
496.323
492.384
488.914
484.999
482.452
480.23
478.482
476.634
1520.23
1544.28
1574.4
1606.5
1639.6
1672.88
1705.85
1738.14
1769.55
1799.84
1828.86
1856.51
1882.75
1907.58
1931.05
1953.22
1974.16
1994
2012.86
2030.47
2046.8
2061.85
2075.73
2088.62
2100.55
2111.5
2121.46
2130.51
2138.7
2146.09
2152.73
2158.67
2163.85
2168.45
2172.5
2175.95
2178.88
2181.38
2183.38
2184.9
2185.85
2186.2
2185.91
2184.9
2183.16
2180.66
2177.36
2173.23
2168.21
2162.25
2155.32
2147.42
2138.56
2128.77
2118.11
2106.62
2094.31
2081.17
2067.15
2052.27
2036.53
2019.88
2002.23
1983.52
1963.73
1942.91
1921.14
1898.62
1874.83
1850.17
1824.72
1798.46
1771.67
1744.49
1717.01
1689.38
1661.18
1632.47
1603.46
1574.41
1545.3
1516.21
1487.15
1458.13
1429.21
1400.4
1371.57
1342.68
1313.67
1284.5
1255.13
1225.45
1195.4
1165.03
1134.28
1103.04
1071.37
1039.67
1008.08
976.18
944.088
912.461
880.644
848.736
816.816
785.592
754.702
724.592
695.602
667.152
640.243
616.745
597.863
580.829
565.657
552.016
537.396
525.03
514.821
506.224
498.766
493.269
489.684
487.562
485.686
1619.06
1645.56
1677.23
1709.91
1743.02
1775.95
1808.24
1839.6
1869.84
1898.86
1926.58
1952.99
1978.11
2001.98
2024.68
2046.31
2066.97
2086.76
2105.63
2123.12
2139.46
2154.65
2168.79
2181.96
2194.09
2205.26
2215.46
2224.76
2233.23
2240.98
2248.01
2254.41
2260.23
2265.56
2270.44
2274.84
2278.75
2282.55
2285.84
2288.63
2290.98
2292.65
2293.48
2293.69
2293.2
2291.96
2289.9
2286.95
2283.03
2278.04
2272
2264.9
2256.74
2247.54
2237.32
2226.05
2213.74
2200.38
2185.99
2170.61
2154.27
2136.97
2118.46
2098.84
2078.08
2056.21
2033.25