/*--------------------------------*- C++ -*----------------------------------*\
| =========                 |                                                 |
| \\      /  F ield         | OpenFOAM: The Open Source CFD Toolbox           |
|  \\    /   O peration     | Version:  2112                                  |
|   \\  /    A nd           | Website:  www.openfoam.com                      |
|    \\/     M anipulation  |                                                 |
\*---------------------------------------------------------------------------*/
FoamFile
{
    version     2.0;
    format      ascii;
    arch        "LSB;label=32;scalar=64";
    class       volScalarField;
    location    "0.00809";
    object      alphat;
}
// * * * * * * * * * * * * * * * * * * * * * * * * * * * * * * * * * * * * * //

dimensions      [1 -1 -1 0 0 0 0];

internalField   nonuniform List<scalar> 
13875
(
0.11986
0.0816023
0.0784504
0.078276
0.0783291
0.0783814
0.0783099
0.0782733
0.078298
0.078303
0.0783044
0.078314
0.0783829
0.078413
0.0783943
0.0782976
0.0782559
0.0782947
0.0783036
0.0783542
0.0783205
0.0782653
0.0784845
0.081437
0.120907
0.103938
0.0576792
0.0570815
0.0571672
0.0566677
0.0567123
0.0570696
0.057135
0.057149
0.0571276
0.0571206
0.0571207
0.0566621
0.0566144
0.0566679
0.0570974
0.0571184
0.0571522
0.0570737
0.0566794
0.0566738
0.0571395
0.057063
0.0573569
0.104652
0.110618
0.0553237
0.0558738
0.0547222
0.0545932
0.0544848
0.0543576
0.0543488
0.0543114
0.0541667
0.054137
0.0543418
0.0542508
0.0542773
0.0542413
0.0543496
0.0541082
0.0542543
0.0542803
0.0544504
0.0545301
0.0546019
0.0557805
0.0550953
0.111258
0.115885
0.054644
0.0553814
0.054318
0.0540572
0.0539511
0.0537354
0.0535632
0.0534768
0.0534167
0.053348
0.0534535
0.0537044
0.0537408
0.0536935
0.0534839
0.0533649
0.0534643
0.0536337
0.0539054
0.0539991
0.0542013
0.0551936
0.0542981
0.11577
0.121031
0.0546336
0.0551206
0.0537478
0.0536922
0.0535118
0.0532126
0.0530618
0.0529802
0.05293
0.0528583
0.0529611
0.0532213
0.0532661
0.0532164
0.0529952
0.0528773
0.0529561
0.0531091
0.0534742
0.0536073
0.0536117
0.0550186
0.0543216
0.121307
0.124407
0.0547437
0.0551867
0.0536104
0.0533124
0.0531194
0.0528175
0.0526127
0.0525525
0.0524986
0.0524191
0.0525087
0.0527774
0.0528516
0.0527675
0.0525398
0.0524483
0.0525463
0.0527327
0.0530521
0.0532383
0.053504
0.0548845
0.0543908
0.124037
0.128743
0.0564728
0.0557834
0.0534565
0.0532869
0.0528981
0.0524347
0.0522495
0.0521628
0.0521195
0.0520351
0.052124
0.0524076
0.0524786
0.0523992
0.0521497
0.0520772
0.0521617
0.0523574
0.0528623
0.0531948
0.0533632
0.0556466
0.0563523
0.128953
0.135699
0.0611937
0.0578334
0.0544121
0.0534152
0.0528643
0.052286
0.0519889
0.0518747
0.0518297
0.0517432
0.0517968
0.0521029
0.0521886
0.0520846
0.0518221
0.051806
0.0519229
0.052218
0.052786
0.0533243
0.0542764
0.0575167
0.0610278
0.135608
0.151297
0.0692418
0.0615382
0.0559196
0.0544141
0.0531682
0.052234
0.0518805
0.0517183
0.0516609
0.0515728
0.0515946
0.0519331
0.0520305
0.0519245
0.051623
0.0516538
0.0518004
0.0521611
0.0530936
0.0542258
0.0556183
0.0610342
0.0684146
0.154255
0.239295
0.0874246
0.0664517
0.0589878
0.0553742
0.0537038
0.0525061
0.0520034
0.0518189
0.0517358
0.0516567
0.0516355
0.0519957
0.052114
0.0520018
0.0517112
0.0517631
0.0519465
0.0524387
0.0536059
0.055258
0.0586511
0.0660108
0.0866889
0.241183
0.365306
0.118392
0.0759589
0.0629208
0.0575537
0.0547533
0.0531146
0.0526015
0.0523278
0.0522091
0.0521363
0.0520845
0.052435
0.0525764
0.0524956
0.0522611
0.0523121
0.0525513
0.053034
0.0546175
0.0573244
0.0616235
0.0748254
0.11303
0.365619
0.658094
0.192966
0.103997
0.0743646
0.0612871
0.057278
0.0551516
0.0542061
0.0537056
0.0534983
0.0533897
0.0533262
0.0536111
0.0537812
0.0537768
0.0536769
0.0537595
0.0541624
0.0551175
0.056837
0.0618867
0.0733799
0.100162
0.18289
0.643587
0.581865
0.435856
0.176152
0.0920951
0.0767377
0.064944
0.0597259
0.0578461
0.0569147
0.0565644
0.0564011
0.0563254
0.0564948
0.0566772
0.0567952
0.0568808
0.0571341
0.0579391
0.0598308
0.0653061
0.0763119
0.0896545
0.172033
0.433629
0.581309
0.491358
0.400229
0.346768
0.327081
0.115848
0.08046
0.0735321
0.067594
0.0650843
0.0643013
0.0638984
0.0637014
0.0637474
0.0639308
0.064243
0.0647504
0.0656932
0.0683674
0.0749559
0.0832088
0.13108
0.328412
0.337391
0.401361
0.500112
0.408092
0.349443
0.329286
0.333972
0.301801
0.200138
0.127251
0.0944986
0.0865059
0.0859127
0.0853272
0.0850076
0.0850306
0.0852144
0.0856844
0.0866449
0.0875658
0.095324
0.133817
0.211983
0.302583
0.330256
0.331354
0.360286
0.421657
0.32955
0.292919
0.281831
0.301143
0.312966
0.321534
0.243935
0.191544
0.171355
0.148467
0.136396
0.132325
0.130864
0.13158
0.134296
0.14306
0.171538
0.195564
0.249016
0.324359
0.307994
0.303767
0.291469
0.298346
0.341867
0.238904
0.227135
0.225322
0.264557
0.318951
0.401314
0.530864
0.565694
0.539673
0.538732
0.558105
0.571237
0.578336
0.574611
0.561208
0.550753
0.539199
0.56832
0.531481
0.398704
0.314502
0.266761
0.230401
0.234545
0.251942
0.140381
0.152283
0.185685
0.22738
0.312938
0.433246
0.564758
0.616575
0.560738
0.512738
0.495135
0.491951
0.494621
0.493479
0.498689
0.529964
0.565694
0.607011
0.567008
0.439425
0.31203
0.229486
0.177673
0.14312
0.131301
0.0683559
0.102646
0.163934
0.248847
0.349971
0.408658
0.474519
0.533272
0.499066
0.45258
0.433001
0.430301
0.431937
0.434899
0.441022
0.461979
0.495767
0.527712
0.487547
0.424873
0.3725
0.265851
0.167873
0.104429
0.0702792
0.0264319
0.0520629
0.112973
0.231047
0.347642
0.36199
0.385018
0.426646
0.424309
0.402373
0.390321
0.384891
0.382247
0.390053
0.397991
0.405528
0.414218
0.414638
0.388487
0.376071
0.362849
0.230919
0.112455
0.0518771
0.0257624
0.0766191
0.085694
0.113149
0.187199
0.27553
0.285378
0.30755
0.351551
0.369039
0.360888
0.349128
0.338353
0.333064
0.344293
0.35638
0.361537
0.357177
0.338231
0.307033
0.294246
0.282299
0.185935
0.112075
0.0866408
0.0816592
0.122137
0.145421
0.12613
0.156174
0.207088
0.224185
0.252448
0.298442
0.322384
0.320042
0.308176
0.294461
0.287655
0.300193
0.314755
0.319565
0.310535
0.285807
0.247482
0.228713
0.210238
0.153858
0.123709
0.144172
0.12329
0.166081
0.152301
0.130048
0.133736
0.163272
0.180441
0.211848
0.255799
0.280629
0.280751
0.268512
0.253829
0.24701
0.258405
0.273571
0.27891
0.268895
0.246167
0.206257
0.182484
0.165089
0.134102
0.127647
0.154601
0.168296
0.206623
0.182604
0.131995
0.123069
0.137926
0.154339
0.180378
0.220075
0.242728
0.244123
0.232078
0.2184
0.212083
0.222569
0.236752
0.242178
0.231712
0.21108
0.175982
0.154698
0.139017
0.123454
0.130646
0.193471
0.20451
0.226748
0.220374
0.13545
0.118839
0.122049
0.134575
0.15657
0.188627
0.208347
0.210228
0.200093
0.18754
0.182408
0.191441
0.204872
0.20982
0.199874
0.181639
0.153917
0.134068
0.122276
0.120777
0.13554
0.233094
0.225119
0.248824
0.249631
0.136309
0.115375
0.111505
0.120831
0.138479
0.164461
0.180305
0.181949
0.173364
0.162339
0.1575
0.165519
0.177054
0.181075
0.17286
0.157795
0.135726
0.120551
0.112084
0.116763
0.137084
0.261486
0.248291
0.27585
0.266442
0.137829
0.112401
0.105054
0.109484
0.124061
0.143372
0.155809
0.156746
0.149689
0.140235
0.136581
0.143298
0.153422
0.156737
0.149977
0.13802
0.12149
0.108496
0.105687
0.113719
0.140591
0.282879
0.272315
0.303927
0.285899
0.13796
0.107978
0.0997803
0.101492
0.112387
0.126854
0.135586
0.13595
0.130142
0.122459
0.119047
0.125165
0.133745
0.136897
0.132017
0.122498
0.109859
0.100849
0.101013
0.109457
0.14167
0.302323
0.30095
0.333873
0.314555
0.143108
0.10572
0.0972575
0.0948556
0.102528
0.112431
0.119096
0.118829
0.113874
0.107005
0.10432
0.10915
0.116372
0.118958
0.115585
0.108921
0.10057
0.0941586
0.0979351
0.106392
0.144261
0.317093
0.329257
0.36137
0.327914
0.143736
0.10177
0.0929029
0.0905068
0.0950949
0.101382
0.105098
0.104196
0.0999553
0.0945077
0.0919094
0.0965071
0.102594
0.105129
0.102994
0.0979629
0.0925299
0.0889739
0.0936775
0.102888
0.146694
0.332371
0.352126
0.3768
0.333513
0.149587
0.100996
0.0906962
0.0861114
0.0887111
0.0907308
0.0930267
0.0917725
0.0883486
0.0834511
0.0814736
0.0852049
0.0906362
0.0927591
0.0917924
0.0889617
0.0869396
0.0849712
0.090612
0.101202
0.149501
0.334069
0.378554
0.386129
0.333025
0.154003
0.0992388
0.0862249
0.0814549
0.0832227
0.0835833
0.0840608
0.0822815
0.078915
0.074811
0.0726757
0.0761918
0.0807458
0.0829699
0.0828738
0.0812374
0.0813804
0.0799283
0.0857137
0.0996875
0.151582
0.332985
0.395774
0.405016
0.327963
0.159544
0.100631
0.0842753
0.0779657
0.0787672
0.0761375
0.075579
0.0735105
0.0707124
0.0668552
0.0652798
0.0681711
0.0724808
0.0743797
0.0750999
0.0749387
0.0771261
0.076491
0.0832407
0.099957
0.159205
0.33674
0.402235
0.41211
0.322429
0.163474
0.100962
0.0807299
0.0742085
0.073325
0.0705945
0.0689963
0.066697
0.0638954
0.0607116
0.0590046
0.0618321
0.0655326
0.0677804
0.0689349
0.0693683
0.0720762
0.0726285
0.0798955
0.10031
0.164183
0.327777
0.411546
0.418879
0.321221
0.164092
0.104217
0.0809018
0.0720881
0.0695771
0.0653068
0.0630768
0.0604294
0.0581305
0.0549583
0.0536785
0.0559409
0.0594642
0.0612299
0.0631669
0.0646517
0.0683466
0.0704186
0.0790624
0.102
0.166684
0.328193
0.418637
0.424878
0.313296
0.161892
0.106088
0.080759
0.068639
0.0649111
0.0608109
0.058423
0.0556982
0.0531473
0.0505298
0.0491396
0.0514382
0.0544886
0.0567378
0.0585471
0.0597924
0.0640833
0.0674984
0.0787771
0.105265
0.164527
0.324537
0.422438
0.42987
0.314761
0.16172
0.111616
0.0827825
0.0674861
0.0622762
0.0563764
0.0538343
0.0509089
0.0489065
0.0462679
0.0452137
0.0470557
0.0500885
0.0518329
0.0543915
0.0560674
0.0615437
0.0659692
0.0804003
0.109321
0.163021
0.318212
0.432769
0.425519
0.312874
0.159083
0.119818
0.0848181
0.0656463
0.0587277
0.0528613
0.0502808
0.0477145
0.0453299
0.043093
0.0418695
0.0437398
0.0464181
0.0485314
0.0505056
0.0519879
0.0580272
0.0642637
0.081443
0.116823
0.15895
0.316524
0.436769
0.42246
0.311764
0.155346
0.122469
0.0882587
0.0668028
0.0570634
0.0497131
0.0467992
0.0438827
0.0421371
0.0398622
0.038966
0.0404901
0.0431256
0.0446496
0.0474347
0.0494171
0.0560856
0.0649145
0.0856483
0.121621
0.154361
0.324393
0.432238
0.413152
0.312225
0.148293
0.122387
0.09383
0.0668581
0.0546629
0.0469667
0.0439982
0.0415868
0.0394486
0.0375212
0.0364396
0.0380666
0.0404146
0.0423208
0.0444281
0.046461
0.0539884
0.0650409
0.0887532
0.121898
0.149657
0.322037
0.425434
0.402372
0.312778
0.144283
0.121992
0.102889
0.0700341
0.0549697
0.0452971
0.0417006
0.0385989
0.0369962
0.0349956
0.0342318
0.0354998
0.0378048
0.0391571
0.0423072
0.0449801
0.053737
0.0672568
0.0963182
0.121018
0.144989
0.325269
0.409796
0.39779
0.310382
0.138959
0.119616
0.107751
0.0719169
0.0541875
0.0439805
0.0397492
0.0370621
0.0349609
0.0332132
0.0322717
0.0337167
0.0358098
0.0375856
0.040111
0.0433756
0.053558
0.0693579
0.107685
0.120358
0.142831
0.316669
0.394547
0.389667
0.311868
0.137057
0.115679
0.107501
0.0779222
0.0555778
0.044056
0.0386191
0.0347282
0.0330314
0.0312085
0.0305512
0.0316543
0.0337716
0.0352051
0.0392458
0.043479
0.0542726
0.0740556
0.107446
0.116948
0.138827
0.311976
0.389643
0.381233
0.307697
0.136156
0.110699
0.106619
0.0866438
0.0570434
0.0438141
0.0378002
0.0339669
0.031591
0.0298961
0.0290126
0.0302718
0.0322866
0.034199
0.0378189
0.0431581
0.055674
0.0813593
0.106976
0.111977
0.136893
0.315885
0.383363
0.375058
0.305043
0.134795
0.106139
0.103358
0.0923136
0.0611765
0.0447205
0.0379853
0.0325612
0.0302196
0.0283134
0.0276744
0.0286649
0.0307931
0.0326766
0.0382815
0.0442361
0.0598496
0.093153
0.10412
0.106885
0.139165
0.317759
0.37742
0.368221
0.303292
0.135052
0.102607
0.0986211
0.0918493
0.068095
0.0461261
0.0377565
0.0328006
0.0295217
0.0274709
0.02655
0.0277575
0.0300584
0.0327249
0.0377319
0.0452366
0.0663213
0.0927401
0.100336
0.103824
0.140159
0.315159
0.371646
0.356319
0.296916
0.136625
0.100204
0.0937488
0.0908662
0.0790256
0.0502547
0.0388835
0.0323536
0.0291212
0.026597
0.0257164
0.0268174
0.0295131
0.0322323
0.0388349
0.048923
0.0766141
0.0918301
0.0952609
0.100583
0.141233
0.308748
0.363916
0.346788
0.292544
0.135261
0.0982081
0.0901802
0.0879589
0.0792251
0.056578
0.0400035
0.0329518
0.0291926
0.0266253
0.0251291
0.026793
0.0296642
0.0328591
0.0396259
0.0550464
0.0782584
0.0888838
0.0920016
0.100548
0.141539
0.300805
0.352215
0.321028
0.281077
0.134664
0.09704
0.0873005
0.0844473
0.0784134
0.0664882
0.0440902
0.0331339
0.029196
0.0263666
0.0251302
0.0265361
0.0295627
0.0329727
0.0436966
0.0646443
0.0779835
0.0851686
0.0887337
0.0986382
0.139518
0.285844
0.324576
0.291388
0.262528
0.130231
0.0955279
0.0852125
0.0802049
0.0766257
0.0678686
0.0497241
0.0358422
0.0298289
0.0267754
0.025212
0.0268958
0.0301335
0.0352421
0.0488035
0.0681769
0.0763808
0.0803165
0.0859335
0.097276
0.133295
0.267447
0.294148
0.0715127
0.198871
0.322838
0.434772
0.480119
0.449255
0.391107
0.350591
0.330688
0.326668
0.332639
0.347921
0.378358
0.427862
0.469438
0.519962
0.572804
0.624889
0.655598
0.671284
0.670936
0.655024
0.628949
0.597051
0.560467
0.518841
0.469985
0.408728
0.317311
0.16678
0.0808123
0.245484
0.388111
0.496121
0.526256
0.484754
0.436583
0.40664
0.380179
0.377155
0.38281
0.403778
0.437727
0.464218
0.487862
0.526501
0.565175
0.602122
0.623325
0.631807
0.627479
0.610961
0.586233
0.556795
0.523021
0.484873
0.440415
0.384439
0.298156
0.161466
0.0930184
0.30188
0.44886
0.547956
0.559646
0.531855
0.496638
0.474143
0.448842
0.446975
0.445594
0.454318
0.467311
0.477664
0.491721
0.523056
0.554604
0.577019
0.588692
0.592143
0.585865
0.569732
0.547303
0.520394
0.489257
0.453958
0.413419
0.362396
0.282352
0.156903
0.104481
0.365335
0.515087
0.611025
0.608832
0.57542
0.544644
0.530499
0.520187
0.516948
0.513286
0.506583
0.496976
0.489882
0.49343
0.515398
0.537283
0.54915
0.55412
0.553191
0.545554
0.529796
0.50911
0.484597
0.456403
0.424615
0.388735
0.3423
0.268337
0.152402
0.113084
0.420108
0.577451
0.68559
0.674526
0.631458
0.596516
0.58403
0.573573
0.561282
0.552764
0.536295
0.515879
0.500239
0.49719
0.510081
0.519024
0.52296
0.523809
0.520387
0.511452
0.495843
0.476533
0.454227
0.428566
0.40003
0.367962
0.325224
0.25564
0.14766
0.123862
0.484509
0.653692
0.769118
0.74865
0.701279
0.665598
0.651633
0.637444
0.616021
0.596273
0.573504
0.542419
0.518033
0.504592
0.504199
0.501702
0.498958
0.495127
0.488787
0.47897
0.463967
0.4464
0.426335
0.402994
0.377415
0.348323
0.308534
0.242816
0.14256
0.136938
0.554992
0.726154
0.844837
0.817163
0.761026
0.726873
0.713617
0.699758
0.677343
0.649435
0.613464
0.572514
0.53711
0.510527
0.496651
0.485054
0.476747
0.469661
0.461659
0.451613
0.437647
0.421844
0.403507
0.381744
0.35778
0.330001
0.291966
0.229096
0.136234
0.150218
0.619067
0.798274
0.915021
0.881821
0.814264
0.778076
0.763375
0.747791
0.721634
0.688632
0.647173
0.599451
0.553886
0.515361
0.488191
0.468499
0.455362
0.445173
0.435899
0.426096
0.413365
0.398789
0.380003
0.359276
0.337773
0.312812
0.277317
0.2177
0.13154
0.165824
0.678342
0.867809
0.979987
0.930373
0.851926
0.810795
0.79259
0.77545
0.749463
0.714755
0.671333
0.620642
0.566319
0.518767
0.480094
0.453564
0.436044
0.423508
0.413483
0.404219
0.392829
0.378077
0.362322
0.344878
0.325133
0.30118
0.266704
0.208773
0.127904
0.181204
0.735166
0.933314
1.03655
0.974042
0.881506
0.83621
0.813719
0.797912
0.773121
0.73727
0.692337
0.640085
0.579788
0.5235
0.474927
0.440618
0.419406
0.404865
0.394284
0.385545
0.37507
0.36322
0.349362
0.333222
0.314361
0.291091
0.257426
0.201436
0.124961
0.19583
0.787649
0.996055
1.09689
1.02552
0.913923
0.862883
0.838201
0.821855
0.797588
0.761847
0.716542
0.661726
0.59779
0.531559
0.473794
0.432058
0.406768
0.390283
0.379259
0.370626
0.36177
0.35232
0.340079
0.324542
0.306199
0.283463
0.25052
0.195865
0.122744
0.207966
0.837929
1.05039
1.13466
1.05455
0.935308
0.884406
0.862676
0.847581
0.824816
0.789731
0.742889
0.686562
0.61809
0.54409
0.478373
0.429653
0.399111
0.380488
0.368514
0.359809
0.352445
0.343584
0.33212
0.31686
0.298776
0.276388
0.244067
0.190573
0.120529
0.217327
0.889255
1.08107
1.15281
1.07262
0.949944
0.901631
0.88357
0.870002
0.849909
0.816958
0.768696
0.712643
0.640309
0.560698
0.488716
0.432291
0.396226
0.374842
0.361602
0.352941
0.345826
0.337091
0.325895
0.311144
0.293286
0.270887
0.238458
0.185462
0.118444
0.224884
0.923096
1.09838
1.16658
1.08684
0.962916
0.915347
0.899875
0.887004
0.868793
0.839403
0.794886
0.740561
0.666941
0.583709
0.504492
0.43999
0.397121
0.372409
0.357531
0.348417
0.340841
0.331975
0.321142
0.307431
0.28932
0.266346
0.233525
0.181319
0.117148
0.229382
0.945612
1.11238
1.18124
1.10151
0.975492
0.923006
0.907132
0.895497
0.882326
0.859492
0.82147
0.771125
0.698626
0.613832
0.528247
0.45352
0.402804
0.373286
0.356398
0.34588
0.337599
0.328868
0.317765
0.303717
0.285986
0.262868
0.229605
0.178004
0.115998
0.232158
0.96407
1.12151
1.18417
1.11257
0.978326
0.923564
0.911588
0.901673
0.89272
0.877171
0.846896
0.803089
0.734613
0.650688
0.558873
0.474306
0.41377
0.37803
0.357626
0.345166
0.335569
0.326014
0.314253
0.29977
0.28239
0.25955
0.226155
0.175154
0.11496
0.233677
0.97557
1.12277
1.1769
1.11312
0.978616
0.920415
0.909344
0.904177
0.900036
0.892073
0.870136
0.835047
0.773032
0.692308
0.596695
0.502757
0.430578
0.385586
0.360724
0.345321
0.333701
0.322838
0.311135
0.296156
0.279063
0.256507
0.223233
0.172801
0.11441
0.234449
0.975855
1.11332
1.15675
1.10133
0.971708
0.914878
0.903643
0.905914
0.90664
0.905062
0.891174
0.864033
0.810366
0.736264
0.640612
0.53932
0.454188
0.396941
0.363434
0.342619
0.329454
0.319144
0.307531
0.294008
0.276865
0.254338
0.221457
0.171331
0.114309
0.231764
0.961663
1.08914
1.12466
1.07652
0.958949
0.906964
0.898026
0.905806
0.911992
0.915251
0.908318
0.889301
0.845775
0.782237
0.692019
0.584758
0.483858
0.40956
0.365572
0.340229
0.325929
0.315683
0.304966
0.293894
0.276912
0.253701
0.22113
0.170137
0.114398
0.229314
0.940321
1.05419
1.08241
1.04026
0.940805
0.897865
0.891991
0.904101
0.915577
0.922906
0.922769
0.912179
0.880104
0.829694
0.748546
0.635602
0.516613
0.42448
0.368315
0.340041
0.324831
0.313929
0.303655
0.29197
0.275848
0.253536
0.219865
0.169411
0.114625
0.225356
0.894688
0.999847
1.02706
0.995431
0.918897
0.887098
0.886816
0.902228
0.920137
0.929423
0.935549
0.932553
0.911023
0.872892
0.800157
0.685242
0.554975
0.44759
0.377669
0.343811
0.325593
0.312825
0.302334
0.290612
0.275131
0.252854
0.218852
0.169297
0.115001
0.221633
0.846722
0.935715
0.963195
0.944014
0.893621
0.875046
0.881946
0.900775
0.923578
0.93693
0.947203
0.949889
0.934753
0.902715
0.841541
0.733172
0.601675
0.480622
0.394819
0.35078
0.327438
0.312516
0.301682
0.289827
0.27411
0.251817
0.21816
0.16806
0.11547
0.209354
0.769192
0.845274
0.887706
0.887687
0.866314
0.862975
0.878947
0.901318
0.925438
0.945911
0.954696
0.95872
0.947935
0.919945
0.874478
0.780128
0.655546
0.525181
0.42114
0.361714
0.331049
0.312491
0.301414
0.288906
0.272649
0.249991
0.216585
0.167117
0.115722
0.204497
0.686794
0.748198
0.808131
0.832767
0.838888
0.850479
0.87413
0.899591
0.923722
0.945859
0.956736
0.959596
0.95363
0.935285
0.906172
0.828122
0.714723
0.579855
0.458116
0.378204
0.337147
0.312858
0.30098
0.287546
0.270548
0.247649
0.214686
0.165997
0.115891
0.176107
0.519517
0.619698
0.72581
0.783492
0.811377
0.83508
0.86501
0.893461
0.917606
0.941683
0.956017
0.956968
0.953132
0.942801
0.93381
0.873877
0.775511
0.642652
0.504982
0.401966
0.344835
0.316281
0.298858
0.285478
0.26776
0.245753
0.213092
0.164903
0.116346
0.166145
0.316011
0.407723
0.469165
0.518529
0.559471
0.59627
0.628345
0.65541
0.672014
0.671777
0.654493
0.622949
0.574769
0.516846
0.472732
0.430686
0.381782
0.352108
0.339941
0.334912
0.341682
0.364722
0.409475
0.469721
0.500294
0.450888
0.334078
0.205684
0.0718277
0.160722
0.296675
0.383114
0.439393
0.484577
0.522355
0.55613
0.585782
0.611212
0.628556
0.633029
0.623719
0.602713
0.567024
0.526936
0.494286
0.470687
0.444849
0.412943
0.393917
0.391177
0.398717
0.428437
0.461559
0.509251
0.547895
0.515071
0.400422
0.252609
0.0806574
0.156069
0.280594
0.360592
0.412029
0.453479
0.488781
0.519787
0.546935
0.569741
0.586597
0.593637
0.589932
0.577816
0.555432
0.526811
0.499773
0.48708
0.479213
0.468652
0.461535
0.465833
0.470984
0.498665
0.520958
0.558691
0.584163
0.566851
0.462955
0.310032
0.0927131
0.151517
0.266251
0.340088
0.387113
0.423981
0.456293
0.48441
0.509062
0.530049
0.546147
0.555037
0.555876
0.550884
0.539506
0.520685
0.501682
0.501884
0.510893
0.522497
0.530463
0.536176
0.540386
0.551596
0.567831
0.604798
0.638936
0.634653
0.531052
0.377156
0.105563
0.146469
0.253051
0.322625
0.366027
0.398906
0.428194
0.453868
0.476321
0.495774
0.511409
0.521603
0.525325
0.525034
0.521838
0.51563
0.506297
0.514525
0.532382
0.55557
0.572695
0.582823
0.599426
0.610514
0.626795
0.666605
0.70941
0.711782
0.595476
0.433249
0.114221
0.141203
0.239995
0.305817
0.346273
0.375976
0.402314
0.425604
0.445796
0.463457
0.47845
0.489377
0.495936
0.500412
0.504588
0.51004
0.515054
0.534452
0.562539
0.596926
0.622964
0.642992
0.664892
0.680632
0.69849
0.737635
0.787169
0.795596
0.673784
0.501104
0.125479
0.134998
0.226343
0.289559
0.328312
0.356554
0.38082
0.402428
0.420887
0.436885
0.450897
0.461818
0.470148
0.478037
0.487891
0.502531
0.52212
0.555084
0.594646
0.638256
0.676129
0.70489
0.728627
0.742567
0.75815
0.797038
0.857851
0.870368
0.748115
0.572787
0.138906
0.129915
0.214451
0.274141
0.310182
0.336305
0.358363
0.378842
0.397467
0.412405
0.425376
0.435938
0.445589
0.456783
0.471742
0.494449
0.526952
0.571076
0.621292
0.670254
0.713111
0.746432
0.773651
0.78949
0.806848
0.847759
0.9221
0.939001
0.819317
0.636054
0.15232
0.126257
0.205658
0.263572
0.298475
0.323238
0.343266
0.36076
0.376385
0.390417
0.403142
0.413243
0.423916
0.437829
0.457767
0.487311
0.530162
0.582618
0.639715
0.691691
0.736
0.770386
0.796091
0.813881
0.835474
0.882039
0.96935
1.00193
0.890052
0.69642
0.168146
0.123312
0.198573
0.254489
0.288457
0.312351
0.331382
0.347512
0.360949
0.372403
0.382461
0.392697
0.404694
0.421342
0.445787
0.483068
0.534795
0.594764
0.656597
0.709671
0.755017
0.790759
0.815162
0.83144
0.857005
0.908355
1.01497
1.05626
0.955347
0.753273
0.183399
0.121087
0.193153
0.247635
0.281012
0.304279
0.322792
0.338261
0.350212
0.360298
0.368742
0.377549
0.38916
0.407772
0.436106
0.481935
0.542371
0.610898
0.675607
0.730811
0.776832
0.812576
0.837185
0.854825
0.882293
0.939922
1.06182
1.11118
1.01701
0.805904
0.197659
0.118983
0.188069
0.241364
0.274168
0.296954
0.315231
0.330469
0.342144
0.351566
0.359075
0.367599
0.379672
0.39952
0.431954
0.484257
0.554253
0.628392
0.696884
0.753929
0.802095
0.837622
0.860721
0.877966
0.902388
0.959649
1.08819
1.14396
1.06724
0.85857
0.209658
0.117087
0.183237
0.235966
0.268592
0.291218
0.309273
0.324234
0.33604
0.345178
0.352556
0.361594
0.374635
0.39644
0.434842
0.493259
0.56853
0.647999
0.720134
0.777705
0.826853
0.860836
0.881651
0.897819
0.919207
0.974237
1.10443
1.1604
1.09427
0.908656
0.218672
0.115789
0.179178
0.231034
0.263626
0.286368
0.304672
0.31955
0.332154
0.340459
0.348247
0.35837
0.373458
0.39797
0.442463
0.507256
0.588757
0.672298
0.745581
0.802166
0.84673
0.876463
0.896289
0.91352
0.933022
0.988263
1.1186
1.17416
1.10972
0.941294
0.225969
0.114582
0.175712
0.227019
0.259971
0.283177
0.302062
0.316984
0.328448
0.338198
0.346649
0.357783
0.375324
0.404561
0.45581
0.530094
0.616552
0.701066
0.773336
0.826572
0.864926
0.888746
0.904223
0.919281
0.938068
1.00163
1.13355
1.18853
1.12376
0.962309
0.230263
0.113477
0.172714
0.223718
0.257134
0.28058
0.29965
0.315395
0.326461
0.336519
0.346362
0.359421
0.379898
0.41579
0.476246
0.55982
0.651144
0.735235
0.803983
0.850539
0.881225
0.897626
0.908693
0.921602
0.939451
1.00553
1.14504
1.1917
1.13273
0.979795
0.233023
0.112913
0.170451
0.221009
0.254718
0.278248
0.298522
0.313471
0.324757
0.335353
0.346994
0.362781
0.387547
0.431708
0.504151
0.596648
0.69097
0.772321
0.835025
0.87259
0.895147
0.90415
0.910426
0.918296
0.935385
1.00265
1.14518
1.18551
1.13559
0.988506
0.234274
0.112971
0.169367
0.219478
0.253157
0.277137
0.295976
0.309786
0.321824
0.333665
0.348119
0.36781
0.398875
0.453848
0.539364
0.63966
0.734394
0.809627
0.864634
0.89317
0.907734
0.910525
0.911964
0.912668
0.928171
0.993301
1.13134
1.1666
1.1268
0.98783
0.234808
0.11358
0.169542
0.219245
0.253087
0.277294
0.293391
0.30682
0.318315
0.329091
0.344411
0.370099
0.412389
0.483169
0.582274
0.689013
0.779903
0.845582
0.890694
0.911186
0.918739
0.91661
0.911876
0.906911
0.920331
0.979284
1.10365
1.13582
1.10338
0.972774
0.23215
0.114105
0.168192
0.218798
0.252477
0.275515
0.291711
0.30448
0.316259
0.327307
0.343042
0.370827
0.426379
0.517017
0.632816
0.7434
0.82653
0.880255
0.914537
0.925807
0.927395
0.920967
0.9107
0.900587
0.910101
0.959387
1.06516
1.09505
1.06922
0.951066
0.229423
0.114165
0.167322
0.218019
0.251896
0.274274
0.29009
0.301847
0.314555
0.32766
0.345313
0.37894
0.446726
0.552039
0.680405
0.795165
0.869085
0.910614
0.934388
0.937548
0.933159
0.924725
0.908228
0.895014
0.898717
0.935707
1.0179
1.0409
1.01539
0.906211
0.225217
0.114363
0.166468
0.216652
0.250672
0.273109
0.288515
0.300882
0.312858
0.329045
0.351225
0.394177
0.475925
0.592553
0.723651
0.833114
0.897259
0.931797
0.948554
0.946017
0.938423
0.92665
0.905695
0.889337
0.885991
0.909516
0.964949
0.978197
0.952193
0.858792
0.221743
0.114294
0.165504
0.21504
0.249187
0.271879
0.287498
0.300779
0.311086
0.331359
0.36069
0.418047
0.516717
0.642766
0.766783
0.862952
0.912157
0.941973
0.953897
0.950581
0.943534
0.927552
0.905017
0.885319
0.873247
0.88156
0.908022
0.904685
0.862302
0.781618
0.209483
0.114083
0.164634
0.213368
0.247335
0.270272
0.286847
0.299587
0.313535
0.33646
0.37623
0.452092
0.56864
0.699214
0.81321
0.89361
0.924522
0.946427
0.953508
0.951469
0.943678
0.923728
0.902758
0.880723
0.86089
0.853941
0.853141
0.827902
0.76691
0.699467
0.204249
0.11384
0.163803
0.211915
0.245453
0.268303
0.28535
0.299157
0.316631
0.343375
0.398928
0.496416
0.628926
0.759191
0.859611
0.921852
0.933007
0.944306
0.950031
0.950654
0.940343
0.919973
0.897629
0.872463
0.846715
0.827371
0.802468
0.746319
0.63793
0.528974
0.176017
0.494961
0.509473
0.526033
0.541719
0.535622
0.524934
0.514982
0.507152
0.502696
0.499262
0.500897
0.506285
0.512164
0.516345
0.518079
0.517498
0.515132
0.511165
0.505857
0.499877
0.493407
0.486899
0.479976
0.474956
0.470378
0.465478
0.461147
0.457422
0.454125
0.451245
0.448766
0.446638
0.444747
0.443241
0.44209
0.441229
0.440464
0.439623
0.438638
0.437388
0.435925
0.433974
0.431461
0.428438
0.424921
0.420951
0.416542
0.411686
0.406367
0.400512
0.394151
0.387473
0.381069
0.374256
0.366769
0.358731
0.35008
0.340776
0.330656
0.31968
0.307929
0.295466
0.282538
0.269363
0.256267
0.243448
0.230908
0.218696
0.206981
0.195933
0.185723
0.176201
0.167526
0.159807
0.152903
0.146651
0.140988
0.13585
0.131171
0.126891
0.122878
0.119236
0.115951
0.113009
0.110378
0.108011
0.105918
0.104093
0.102487
0.101108
0.0998524
0.0987781
0.0978589
0.0971454
0.0966274
0.0961966
0.0958517
0.0955269
0.0954516
0.0959719
0.0966844
0.0974131
0.0982583
0.0992436
0.100452
0.102218
0.104177
0.106342
0.108578
0.110902
0.113093
0.114645
0.115798
0.117185
0.118834
0.119296
0.119622
0.119676
0.119444
0.11903
0.118112
0.117163
0.115355
0.114298
0.113784
4.1682
4.34699
4.57843
4.76875
4.74456
4.67113
4.60221
4.56061
4.55303
4.56997
4.62778
4.70032
4.75934
4.78977
4.78893
4.7615
4.71392
4.65259
4.58311
4.51065
4.43928
4.37282
4.31439
4.26524
4.21569
4.17475
4.13896
4.11029
4.08865
4.07284
4.06168
4.05483
4.0522
4.05203
4.05127
4.04905
4.04429
4.03622
4.02441
4.00839
3.98837
3.96383
3.93476
3.90135
3.86372
3.82225
3.77695
3.72776
3.67462
3.61721
3.55499
3.48678
3.40921
3.32712
3.24318
3.15711
3.06931
2.98043
2.8871
2.78798
2.68236
2.57005
2.45071
2.32445
2.19223
2.05442
1.91148
1.7666
1.62157
1.47889
1.34044
1.20914
1.08669
0.973184
0.869055
0.774662
0.689937
0.614663
0.548463
0.491195
0.442497
0.401314
0.366384
0.336787
0.311675
0.290277
0.272016
0.256464
0.24318
0.231751
0.221591
0.212424
0.203937
0.196381
0.18959
0.183687
0.178433
0.173885
0.169921
0.167142
0.165593
0.164431
0.163469
0.162767
0.162529
0.162931
0.164078
0.165792
0.167102
0.168643
0.170183
0.170564
0.170486
0.170808
0.172438
0.172137
0.171222
0.170582
0.17024
0.169625
0.167781
0.165761
0.164495
0.16326
0.163172
6.02585
6.27996
6.59956
6.89484
7.11673
7.14488
7.13009
7.1189
7.14249
7.16898
7.20636
7.24287
7.26399
7.26064
7.23115
7.17995
7.11394
7.03899
6.95998
6.88118
6.80594
6.73709
6.67648
6.62496
6.58072
6.54289
6.51019
6.48319
6.46136
6.4428
6.42343
6.40664
6.3924
6.37599
6.3557
6.33033
6.29912
6.26174
6.21808
6.1682
6.11239
6.05053
5.98284
5.90983
5.83173
5.74885
5.66139
5.56946
5.47312
5.37252
5.26776
5.15897
5.04607
4.9289
4.80756
4.68186
4.55021
4.4105
4.26561
4.11603
3.96187
3.8032
3.64071
3.47518
3.31167
3.15144
2.99204
2.83123
2.67014
2.50978
2.35101
2.19603
2.04442
1.89565
1.74924
1.60602
1.46749
1.33493
1.20919
1.09116
0.981648
0.881469
0.791082
0.710795
0.64061
0.579936
0.527716
0.482766
0.444169
0.411172
0.38294
0.358689
0.337567
0.319074
0.302892
0.288824
0.276588
0.266005
0.257421
0.250561
0.244829
0.239933
0.235865
0.232737
0.230114
0.228406
0.227689
0.227051
0.226209
0.224822
0.223543
0.221964
0.221006
0.221668
0.223215
0.222972
0.221095
0.219431
0.217988
0.217353
0.215997
0.213661
0.211537
0.210187
0.21083
7.18289
7.48116
7.82673
8.13431
8.4354
8.66457
8.76574
8.81918
8.87479
8.93607
8.95478
8.9509
8.92053
8.86461
8.78887
8.69966
8.6042
8.50859
8.41748
8.33413
8.26055
8.19769
8.14536
8.10177
8.06763
8.03975
8.0169
7.99699
7.97725
7.95659
7.93539
7.91574
7.89029
7.85795
7.81837
7.77147
7.71741
7.65661
7.58935
7.51614
7.43725
7.35285
7.2627
7.16922
7.07172
6.97046
6.86578
6.75791
6.64704
6.53318
6.41633
6.29609
6.17263
6.04564
5.91461
5.77895
5.63807
5.49173
5.33993
5.18344
5.02236
4.85662
4.68636
4.51236
4.33097
4.14364
3.95485
3.76649
3.5827
3.40403
3.22858
3.05489
2.88412
2.71603
2.55108
2.38978
2.23541
2.08943
1.9514
1.82028
1.69523
1.5754
1.46079
1.35145
1.24746
1.14931
1.05661
0.969274
0.888516
0.815004
0.748806
0.689489
0.636085
0.587675
0.544024
0.505069
0.470657
0.440065
0.413872
0.391099
0.371088
0.353504