/*--------------------------------*- C++ -*----------------------------------*\
| =========                 |                                                 |
| \\      /  F ield         | OpenFOAM: The Open Source CFD Toolbox           |
|  \\    /   O peration     | Version:  2112                                  |
|   \\  /    A nd           | Website:  www.openfoam.com                      |
|    \\/     M anipulation  |                                                 |
\*---------------------------------------------------------------------------*/
FoamFile
{
    version     2.0;
    format      ascii;
    arch        "LSB;label=32;scalar=64";
    class       surfaceScalarField;
    location    "0.00809";
    object      phi;
}
// * * * * * * * * * * * * * * * * * * * * * * * * * * * * * * * * * * * * * //

dimensions      [1 0 -1 0 0 0 0];

oriented        oriented;

internalField   nonuniform List<scalar> 
27436
(
-0.533453
8.1928
-0.0932931
7.47165
-0.0850542
7.78729
-0.0703953
7.78641
-0.0649
7.78887
-0.0482408
7.78076
-0.0406522
7.78964
-0.0342284
7.79029
-0.0238974
7.78783
-0.0154181
7.789
-0.00891386
7.78994
0.000345024
7.7879
0.014208
7.78319
0.0311013
7.78082
0.0462233
7.78231
0.0549135
7.78823
0.058026
7.79262
0.0658462
7.78971
0.0753482
7.78829
0.0895423
7.78253
0.0962111
7.7879
0.111766
7.78559
0.123929
7.78251
0.57422
7.46107
8.219
-0.247208
8.44
-0.0961686
7.3206
-0.0813385
7.77247
-0.0549228
7.76023
-0.0604064
7.7943
-0.0590408
7.78274
-0.0380545
7.76805
-0.0283103
7.78107
-0.0212885
7.78091
-0.0111214
7.77909
0.00140865
7.77822
0.0157684
7.7737
0.0151828
7.78385
0.021633
7.77433
0.021063
7.78287
0.0377151
7.77158
0.0466086
7.78372
0.0589576
7.77736
0.082341
7.76492
0.0776783
7.78721
0.0722208
7.79337
0.102998
7.75478
0.11431
7.77098
0.268182
7.30906
8.48729
-0.227238
8.66724
-0.141147
7.23449
-0.120519
7.75175
-0.107077
7.74646
-0.105243
7.79212
-0.106503
7.78318
-0.0942444
7.75559
-0.0736994
7.75909
-0.05847
7.76286
-0.0498625
7.76957
-0.0392798
7.76671
-0.0146017
7.74952
-0.0125453
7.78187
-0.0113635
7.77317
-0.00824461
7.77973
0.0127142
7.75062
0.0240784
7.77236
0.0473452
7.75412
0.0609231
7.75134
0.0593999
7.78874
0.0638678
7.78894
0.078696
7.73988
0.100899
7.74906
0.192338
7.2174
8.67269
-0.169534
8.83679
-0.139468
7.20443
-0.134229
7.74643
-0.113516
7.72555
-0.114845
7.7931
-0.111022
7.77894
-0.0904573
7.73493
-0.0722406
7.73937
-0.0574825
7.74583
-0.0436126
7.75476
-0.0291448
7.75113
-0.00720065
7.72745
0.00304889
7.77169
0.00490325
7.77136
0.0149698
7.76966
0.0353103
7.73027
0.0494502
7.75822
0.069778
7.73382
0.088549
7.73257
0.0942307
7.78307
0.094456
7.78875
0.118975
7.71539
0.111631
7.75675
0.162379
7.16511
8.83205
-0.0735851
8.91037
-0.0365467
7.16735
-0.092689
7.80244
-0.0634498
7.696
-0.0714806
7.80075
-0.0708789
7.77671
-0.0523693
7.71684
-0.036006
7.72152
-0.0245758
7.7331
-0.0142684
7.74379
-0.00167118
7.73765
0.0165288
7.70936
0.0268725
7.76139
0.0276598
7.77062
0.0370356
7.7603
0.0543808
7.71292
0.0644726
7.74813
0.0821414
7.71616
0.0969909
7.71772
0.101062
7.779
0.0968768
7.79296
0.124852
7.68745
0.0901591
7.79175
0.0973153
7.15737
8.93134
0.118598
8.79176
0.0437937
7.24209
-0.0503168
7.89642
-0.0137938
7.6591
-0.0336611
7.82024
-0.0380023
7.78051
-0.0251105
7.70435
-0.0128359
7.70811
-0.0059533
7.72469
-0.00171399
7.73885
0.00550545
7.72993
0.019325
7.69561
0.0256296
7.7551
0.0250296
7.77127
0.0296597
7.75569
0.0421739
7.7004
0.0463738
7.74393
0.0584652
7.70408
0.0684525
7.70774
0.0690642
7.77839
0.052402
7.80966
0.0884503
7.65141
-0.0139522
7.89458
-0.0212751
7.16459
8.91408
0.304664
8.48708
0.136133
7.41055
-0.00694831
8.03936
0.0211025
7.63055
-0.0251602
7.86615
-0.0514641
7.80696
-0.0594906
7.71234
-0.0673547
7.71585
-0.0829218
7.73863
-0.0952035
7.75006
-0.112374
7.74658
-0.120276
7.70343
-0.131178
7.76598
-0.146229
7.78635
-0.158055
7.76754
-0.166403
7.70879
-0.185013
7.76255
-0.192985
7.71207
-0.207957
7.72272
-0.228684
7.79912
-0.262773
7.84377
-0.284755
7.67343
-0.354759
7.96488
-0.658629
7.46797
8.2591
0.873336
7.61374
0.521975
7.76185
0.410307
8.15079
0.33098
7.70937
0.264959
7.932
0.223578
7.85051
0.194745
7.73979
0.171194
7.73873
0.141885
7.76653
0.114333
7.77613
0.0825534
7.77776
0.0608857
7.72483
0.0378922
7.78894
0.00675369
7.81748
-0.0192352
7.7936
-0.0445074
7.73412
-0.074307
7.79237
-0.100701
7.73845
-0.130647
7.75267
-0.167111
7.83556
-0.228186
7.90485
-0.279093
7.72443
-0.406094
8.09207
-0.693783
7.75557
7.56765
0.592986
7.02077
0.410254
7.94456
0.237731
8.32316
0.187153
7.75947
0.126089
7.99262
0.0937328
7.88442
0.0864212
7.74567
0.0837541
7.74042
0.0785858
7.77096
0.0760083
7.77705
0.0712217
7.78186
0.0705634
7.72484
0.0767247
7.78265
0.0767752
7.81743
0.0769469
7.7935
0.0722391
7.73891
0.0674503
7.79723
0.0629393
7.743
0.0562193
7.75938
0.0293518
7.86237
-0.0266918
7.96086
-0.0465393
7.74428
-0.219196
8.26477
-0.372325
7.90856
7.19366
-3.05089
10.0718
-3.39172
8.28513
-2.76467
7.69596
-2.61939
7.61428
-2.30418
7.67716
-1.94152
7.51924
-1.64709
7.44873
-1.36912
7.46177
-1.0838
7.48512
-0.781142
7.47265
-0.494742
7.49439
-0.209106
7.43864
0.0975873
7.47601
0.40367
7.51144
0.694818
7.50248
0.966313
7.46749
1.26482
7.49883
1.54158
7.46625
1.83561
7.46528
2.19644
7.50136
2.50188
7.65526
2.66006
7.58613
3.23535
7.6893
2.95064
8.19324
10.1419
-4.25827
14.3301
-4.36759
8.39401
-4.19785
7.52712
-3.90279
7.3191
-3.32539
7.09797
-2.79117
6.98149
-2.34764
7.00455
-1.92142
7.03527
-1.47054
7.03341
-1.0206
7.02117
-0.562261
7.03477
-0.121691
6.9978
0.340525
7.01412
0.811859
7.04036
1.25927
7.05523
1.67728
7.04954
2.13225
7.04397
2.5704
7.02826
3.0248
7.01097
3.57538
6.95064
4.13205
7.09826
4.44299
7.275
4.61441
7.51753
4.56488
8.24244
14.7069
-2.7577
17.0876
-4.86778
10.5029
-4.98385
7.64438
-4.14043
6.4756
-3.6207
6.57633
-3.17326
6.53439
-2.70024
6.53309
-2.21614
6.55147
-1.71761
6.53415
-1.2253
6.52777
-0.723447
6.53207
-0.244426
6.51904
0.257809
6.51256
0.762098
6.53647
1.25947
6.55801
1.71816
6.59097
2.20628
6.55612
2.69719
6.53778
3.19252
6.51592
3.66739
6.47578
4.24795
6.51728
5.09762
6.42481
4.72022
7.89449
2.78001
10.1823
17.4866
2.36546
14.7219
0.166712
12.6994
-5.00697
12.8178
-3.89184
5.36009
-3.80362
6.48953
-3.30849
6.04296
-2.87847
6.10586
-2.3722
6.04542
-1.84891
6.01045
-1.32875
6.00761
-0.811034
6.01457
-0.307265
6.01624
0.211117
5.99521
0.740688
6.00745
1.26497
6.03387
1.78884
6.06727
2.28042
6.06484
2.76023
6.05857
3.20113
6.0756
3.75773
5.9194
3.97336
6.30119
5.10714
5.29004
-0.178965
13.18
-2.39818
12.4012
15.0881
2.45448
12.2669
3.52045
11.6317
3.44572
12.8896
-0.814771
9.62641
-3.63343
9.31442
-3.20457
5.62128
-2.97356
5.8776
-2.47263
5.54429
-1.94731
5.48543
-1.46693
5.52857
-0.977241
5.5262
-0.47265
5.5132
0.0263731
5.49745
0.532167
5.50241
1.03393
5.5324
1.52861
5.57273
2.02826
5.56517
2.48449
5.60274
2.6153
5.94574
2.97883
5.55657
-0.0879592
9.36774
-4.15595
9.35844
-3.87681
12.9003
-2.95633
11.48
12.1309
1.87857
10.3872
3.87909
9.63129
5.77511
10.9921
4.95538
10.4485
4.08949
10.1841
-1.20473
10.9211
-2.38837
7.06443
-2.04715
5.20369
-1.63126
5.07077
-1.13837
5.03813
-0.603485
4.99321
-0.0630631
4.97435
0.469455
4.9661
1.00215
4.97059
1.54224
4.99277
2.05441
5.06079
2.44473
5.17445
2.79522
5.25227
1.52982
7.21199
-3.6516
10.7384
-4.24009
9.95659
-4.88784
10.0063
-3.05529
11.0677
-1.33509
9.75974
10.7955
1.08854
9.29733
2.16188
8.55703
3.97891
9.17581
4.93614
9.49111
5.05123
10.0701
5.78601
10.1866
2.76491
10.0846
1.1242
6.84844
-0.0614879
6.2599
-0.390259
5.3672
-0.250961
4.8544
0.0427735
4.68107
0.394352
4.61492
0.716233
4.6487
0.92957
4.7798
0.815802
5.17481
-0.50762
6.49816
-2.33362
7.07747
-5.0291
9.90808
-4.27571
9.98672
-3.96755
9.64834
-3.50375
9.54242
-1.85626
9.41964
-0.756419
8.65978
10.0389
2.01023
7.28566
3.1885
7.37758
4.38972
7.97431
5.95309
7.92713
7.04096
8.98367
6.63269
10.5971
4.68668
12.0254
2.15215
9.38757
0.862351
7.55307
0.17921
6.05244
-0.0082606
5.04174
-0.0463779
4.71775
-0.0226921
4.58835
-0.0191668
4.64451
-0.163106
4.92221
-0.810633
5.82165
-2.36584
8.05304
-4.90904
9.62074
-6.7531
11.7563
-7.23668
10.4714
-6.43927
8.84998
-5.009
8.11116
-3.71205
8.1225
-2.56449
7.51226
7.47443
2.53138
4.7534
4.14031
5.76698
4.67415
7.43856
4.32119
8.2813
4.53777
8.76642
4.23915
10.899
4.11403
12.1521
2.52854
10.9735
1.35089
8.73239
0.598007
6.80746
0.222516
5.41805
-0.0718806
5.01217
-0.370403
4.8862
-0.674241
4.94745
-1.02789
5.27497
-1.90855
6.70044
-3.24123
9.38148
-4.93161
11.3095
-5.88682
12.7155
-6.25511
10.8428
-5.93105
8.52971
-5.92407
8.10487
-4.95478
7.15297
-2.94058
5.49798
4.53394
3.16
1.59275
6.23586
2.68939
8.45432
5.21777
8.21603
8.52368
6.44765
10.533
5.92437
11.4214
5.58413
12.4927
4.8869
11.6697
4.15376
9.46499
3.23135
7.73042
1.97626
6.6732
0.805303
6.1824
-0.343149
6.03357
-1.54217
6.1451
-2.8967
6.62785
-3.97496
7.77619
-4.37033
9.77354
-4.74083
11.6775
-4.55301
12.529
-5.20697
11.4987
-7.45003
10.7748
-7.83995
8.49737
-5.77091
5.08288
-2.95733
2.68401
1.57638
1.19824
0.393058
2.91801
0.967755
4.95586
3.17732
6.49614
6.98475
5.73906
11.2893
5.42401
11.7362
5.40051
12.5178
4.85711
12.2136
3.80848
10.5131
2.64959
8.88906
1.5004
7.822
0.37932
7.30278
-0.74992
7.16218
-1.90425
7.29913
-3.1459
7.86934
-4.43779
9.06734
-5.4462
10.7804
-5.87517
12.1043
-5.82087
12.4737
-6.07775
11.755
-6.68764
11.3872
-4.96075
6.77361
-2.97904
3.10145
-1.21246
0.917301
0.363461
0.580356
-0.190215
0.861828
0.684381
1.00355
3.03414
1.30418
6.68105
2.27157
10.3211
2.93166
11.077
3.42279
12.0281
3.3212
12.3148
2.64483
11.189
1.78569
9.74828
0.934554
8.67323
0.0959949
8.14113
-0.735146
7.99361
-1.61026
8.17487
-2.54298
8.80246
-3.47933
10.0032
-4.09123
11.3908
-4.05138
12.0622
-3.42399
11.8448
-2.73271
11.0627
-1.65984
10.3162
-1.15748
6.27107
-0.90793
2.85167
-0.593035
0.601542
-0.231271
-0.152357
-0.0379901
-0.304395
0.834668
-0.736707
3.46557
-0.684127
6.62485
0.393651
9.2434
1.3175
10.1545
1.90762
11.438
2.03798
12.1838
1.74862
11.4791
1.26673
10.2308
0.71065
9.22994
0.151302
8.70111
-0.41013
8.55614
-0.972803
8.73848
-1.52759
9.3576
-1.97624
10.4514
-2.16636
11.5797
-1.95257
11.8473
-1.28683
11.1786
-0.29884
10.0737
0.802135
9.21528
0.725634
6.34893
0.363609
3.21464
0.19997
0.765009
-0.0319854
-0.573524
0.535032
-1.41848
1.67873
-1.80644
3.85263
-1.81028
6.62357
-0.915286
8.34842
-0.0506308
9.29118
0.471326
10.9139
0.772315
11.8814
0.852005
11.3997
0.72876
10.3548
0.495318
9.46423
0.211783
8.98576
-0.0738415
8.84316
-0.34246
9.00811
-0.539383
9.55482
-0.596197
10.5081
-0.459586
11.4429
-0.188098
11.5748
0.445378
10.5452
1.30076
9.21643
2.16824
8.34714
2.02967
6.48754
1.55195
3.69192
0.570332
1.74617
0.536967
-0.407228
0.943389
-1.53151
2.80203
-2.45397
4.77311
-2.55949
6.72552
-2.0717
7.86228
-1.60099
8.81949
-1.02647
10.3367
-0.50563
11.36
-0.152966
11.0494
-0.00264582
10.206
0.0147304
9.44813
-0.0431549
9.04517
-0.135213
8.93663
-0.194557
9.06863
-0.174743
9.53553
-0.00550704
10.3392
0.355724
11.0817
0.849046
11.082
1.34852
10.0457
1.9141
8.65037
2.46139
7.79944
2.35199
6.59673
1.37958
4.66457
0.370645
2.754
0.907742
-0.386951
1.33205
-1.41833
3.83325
-2.21226
5.5653
-2.42995
6.94155
-2.19321
7.6261
-1.88798
8.51217
-1.4455
9.8913
-0.919216
10.8324
-0.477507
10.6091
-0.218305
9.94818
-0.101046
9.33222
-0.0597558
9.00513
-0.025912
8.90435
0.0267804
9.01736
0.162935
9.4004
0.439223
10.0638
0.872234
10.6498
1.37789
10.576
1.78382
9.64088
2.10696
8.32614
2.37482
7.52977
2.14529
6.82543
1.31418
5.49602
0.352726
3.71613
1.26058
-0.352289
1.68656
-1.23865
4.72153
-2.06202
6.38696
-2.42224
7.29994
-2.38915
7.59268
-2.16587
8.28824
-1.77753
9.50053
-1.21362
10.2687
-0.71321
10.1119
-0.349418
9.58678
-0.135759
9.12011
0.021535
8.8495
0.14766
8.77999
0.307848
8.85891
0.541414
9.1681
0.934961
9.67098
1.44812
10.137
1.96921
10.0557
2.28952
9.31974
2.50408
8.1117
2.52335
7.50985
2.1478
7.20063
1.25271
6.39062
0.354284
4.6146
1.6154
-0.442684
2.13125
-1.39618
5.67821
-2.21322
7.20254
-2.54126
7.6258
-2.5923
7.64252
-2.46261
8.15666
-2.16191
9.19777
-1.6559
9.7626
-1.14228
9.60027
-0.743115
9.1893
-0.448673
8.82727
-0.22928
8.63163
-0.0215245
8.57405
0.197382
8.64166
0.492764
8.87404
0.880046
9.28498
1.35407
9.66401
1.83253
9.57698
2.15325
9.00052
2.29645
7.96758
2.23412
7.57045
1.95559
7.47781
1.21656
7.12965
0.360669
5.47229
1.97694
-0.361611
2.49474
-1.20939
6.53035
-1.95927
7.95303
-2.17764
7.84378
-2.36091
7.82368
-2.27803
8.07253
-1.992
8.91067
-1.49454
9.26648
-1.01639
9.12519
-0.616945
8.79163
-0.315555
8.52732
-0.0537826
8.37153
0.180132
8.34176
0.443946
8.37939
0.75504
8.56413
1.18233
8.85842
1.6669
9.18054
2.11104
9.13345
2.34523
8.76512
2.41808
7.89575
2.20762
7.77985
1.93106
7.75253
1.16945
7.89102
0.35308
6.2903
2.33259
-0.300142
2.79634
-1.18064
7.41498
-1.90722
8.67923
-2.09033
8.02621
-2.23908
7.97119
-2.17112
8.0021
-1.92028
8.65921
-1.49197
8.83924
-1.03542
8.67037
-0.643753
8.40089
-0.303365
8.18806
-0.0173212
8.08667
0.267012
8.05871
0.557353
8.09023
0.908463
8.21405
1.30306
8.46509
1.74127
8.74316
2.15957
8.71615
2.38748
8.53814
2.44217
7.83979
2.27932
7.9415
2.09321
7.93687
1.38554
8.59744
0.449693
7.2285
2.78238
-0.53961
3.33642
-1.4383
8.31917
-2.05512
9.29728
-2.22008
8.19051
-2.40564
8.15409
-2.44603
8.04107
-2.2475
8.46119
-1.79192
8.38507
-1.34393
8.22339
-0.938402
7.99561
-0.608912
7.85922
-0.294481
7.77312
-0.00203728
7.76713
0.311034
7.77803
0.646029
7.87983
1.05954
8.05217
1.49138
8.31231
1.87936
8.32851
2.07682
8.33992
2.04585
7.87176
1.92194
8.06434
1.71272
8.14364
1.11573
9.19334
0.384322
7.94794
3.1617
-0.466313
3.8029
-1.2633
9.11895
-1.92775
9.96331
-2.02282
8.28526
-2.03826
8.16797
-2.02305
8.02597
-1.82443
8.26215
-1.46928
8.02998
-1.08152
7.8353
-0.725392
7.63927
-0.379586
7.5137
-0.0738391
7.46781
0.241118
7.4527
0.552127
7.46756
0.901166
7.53121
1.26351
7.69034
1.64377
7.93252
2.00448
7.9687
2.16628
8.17763
2.1563
7.88179
2.1418
8.07795
1.93609
8.34989
1.42155
9.7081
0.592307
8.78392
3.75883
-0.415561
4.21791
-0.815327
9.51952
-1.5407
10.6895
-1.74815
8.49004
-1.82032
8.23841
-1.78233
7.98812
-1.65683
8.13708
-1.32842
7.70116
-0.991945
7.49776
-0.655359
7.30177
-0.364661
7.2228
-0.0633547
7.16669
0.22333
7.16624
0.523276
7.16782
0.822911
7.23182
1.18649
7.32697
1.53202
7.58699
1.80825
7.69247
1.92042
8.06432
1.9581
7.84473
1.92181
8.11484
1.8765
8.39334
1.11382
10.4733
0.532275
9.38266
4.30678
-0.653254
4.87208
-1.12075
9.98928
-1.8356
11.4042
-1.97947
8.63244
-1.956
8.21289
-1.8912
7.92332
-1.71141
7.95544
-1.42293
7.41081
-1.11731
7.19
-0.826073
7.0097
-0.515669
6.91201
-0.231215
6.88209
0.0675474
6.86745
0.357393
6.87801
0.667566
6.92145
0.953776
7.04046
1.24735
7.29287
1.53597
7.40436
1.68591
7.91362
1.74972
7.78103
1.7525
8.11089
1.64619
8.49858
0.783715
11.3451
0.340533
9.82444
4.63836
-0.453379
5.32323
-0.781313
10.3172
-1.37385
11.9975
-1.59566
8.85341
-1.6557
8.27343
-1.60511
7.87529
-1.45384
7.80412
-1.19545
7.15013
-0.908748
6.90124
-0.604986
6.70515
-0.341603
6.64814
-0.0584838
6.59866
0.208297
6.60046
0.4875
6.59858
0.754507
6.65423
1.06879
6.72595
1.35228
7.00888
1.59399
7.16221
1.74427
7.76171
1.77364
7.75197
1.7357
8.15059
1.42665
8.80712
0.980729
11.79
0.472279
10.3432
5.11323
-0.32116
5.64364
-0.490039
10.4829
-0.996193
12.503
-1.5282
9.38558
-1.56836
8.3129
-1.4869
7.79165
-1.26637
7.57945
-1.05388
6.93499
-0.819775
6.66544
-0.587189
6.47162
-0.322045
6.38242
-0.0808725
6.35706
0.179358
6.33986
0.424272
6.35334
0.684066
6.39392
0.916304
6.49285
1.1568
6.76747
1.38398
6.93456
1.56844
7.57663
1.63571
7.68676
1.67009
8.11641
1.23858
9.23882
0.724364
12.2989
0.415162
10.6721
5.52607
-0.431669
6.0775
-0.690319
10.738
-0.960408
12.7721
-1.58536
10.0088
-1.55783
8.28484
-1.50849
7.74275
-1.37402
7.44319
-1.13066
6.68985
-0.910942
6.44427
-0.654236
6.21437
-0.433358
6.161
-0.18614
6.10935
0.0403813
6.11283
0.282416
6.11083
0.514291
6.16162
0.776211
6.23048
0.985743
6.55693
1.20512
6.71495
1.34669
7.43233
1.37953
7.65075
1.34259
8.1545
0.699855
9.8844
0.395682
12.5839
0.340542
10.7277
5.90015
-0.250924
6.32932
-0.347967
10.832
-0.480288
12.9033
-1.23753
10.7702
-1.3787
8.42814
-1.34169
7.70607
-1.1268
7.22658
-0.905438
6.46669
-0.699127
6.23637
-0.506934
6.02166
-0.273296
5.92691
-0.0618812
5.89727
0.174429
5.87597
0.391884
5.89286
0.616131
5.93663
0.808965
6.03687
1.03077
6.33415
1.26847
6.47668
1.45041
7.25155
1.47936
7.62391
1.39673
8.23747
0.664791
10.611
0.611736
12.6549
0.455207
10.8525
6.39298
-0.0467651
6.37589
-0.0687593
10.8526
-0.0863589
12.9202
-0.771034
11.457
-1.18543
8.84337
-1.12339
7.64251
-1.02146
7.12051
-0.838315
6.28186
-0.657759
6.05545
-0.444325
5.80748
-0.262229
5.74425
-0.0555111
5.69004
0.133488
5.68633
0.339906
5.68586
0.527072
5.74899
0.753174
5.80988
0.926491
6.15965
1.10955
6.29277
1.26577
7.09227
1.34088
7.54619
0.976155
8.60298
0.318154
11.2586
0.288059
12.6637
0.22039
10.9719
6.595
-0.233377
6.61087
-0.387086
11.0066
-0.22874
12.7588
-0.717792
11.9456
-1.31748
9.44029
-1.22947
7.55482
-1.06359
6.95421
-0.876703
6.09518
-0.685773
5.86405
-0.527484
5.64937
-0.335835
5.55215
-0.159628
5.51315
0.0365811
5.48952
0.213242
5.50862
0.403397
5.55828
0.56558
5.64749
0.766764
5.95766
0.940773
6.11906
1.04325
6.99001
1.12054
7.46796
0.479219
9.24427
-0.0852821
11.8254
0.034101
12.5595
0.0549269
10.9655
6.6348
-0.0379018
6.6493
-0.065718
11.0358
0.120798
12.5719
-0.167145
12.235
-0.861981
10.1351
-0.942571
7.63588
-0.853546
6.86439
-0.720045
5.96017
-0.575919
5.71907
-0.38144
5.45386
-0.218849
5.38914
-0.0397575
5.33349
0.128196
5.32098
0.308168
5.32813
0.472506
5.39325
0.679047
5.43987
0.81836
5.81779
0.964343
5.97181
1.09874
6.85463
1.02222
7.54461
0.381248
9.8831
0.0849024
12.1251
0.184368
12.4716
0.114566
11.0262
6.75609
0.0159656
6.63375
0.071803
10.9836
0.273739
12.3726
0.243767
12.2659
-0.496418
10.8728
-0.904782
8.04194
-0.73425
6.68973
-0.631536
5.85586
-0.484453
5.57196
-0.359868
5.32931
-0.198125
5.22713
-0.0471502
5.18196
0.116499
5.1568
0.267112
5.17693
0.424532
5.23555
0.558408
5.30585
0.727859
5.64667
0.828752
5.8708
1.03472
6.647
0.753169
7.82564
-0.0178967
10.6596
-0.178511
12.2856
-0.0160833
12.2931
-0.00254766
11.0134
6.66248
-0.12508
6.76022
-0.0972047
10.9575
0.0489477
12.2286
0.15675
12.1593
-0.296826
11.3266
-0.780546
8.52479
-0.777224
6.68805
-0.661164
5.74078
-0.572746
5.48342
-0.411612
5.16765
-0.27364
5.08878
-0.119999
5.02777
0.0237855
5.01248
0.17149
5.02872
0.312071
5.09413
0.474759
5.14243
0.554608
5.56697
0.633196
5.79116
0.70497
6.57471
0.138533
8.38805
-0.494166
11.2741
-0.343108
12.137
-0.238538
12.1794
-0.0851967
10.7746
6.57725
-0.0344144
6.79675
0.0342056
10.8915
0.180888
12.083
0.533258
11.8091
0.141369
11.7278
-0.472998
9.1421
-0.646006
6.86033
-0.507241
5.59957
-0.409218
5.38424
-0.310744
5.06839
-0.173289
4.95101
-0.0393447
4.89332
0.105697
4.86689
0.242881
4.89091
0.376554
4.96013
0.487001
5.03176
0.62645
5.42508
0.746735
5.67073
0.618834
6.70144
0.054199
8.95532
-0.307528
11.6459
-0.0520529
11.8793
0.0653162
12.0192
0.110253
10.7252
6.73422
0.092828
6.70501
0.258428
10.7284
0.302731
12.04
0.550926
11.5641
0.711477
11.5646
0.0109738
9.84372
-0.446276
7.31239
-0.44524
5.59694
-0.376779
5.31614
-0.265439
4.9574
-0.156163
4.84135
-0.0309266
4.76764
0.0911587
4.7443
0.21818
4.76338
0.331741
4.84583
0.451729
4.91101
0.532878
5.34421
0.590661
5.61279
0.304144
6.98813
-0.4897
9.7489
-0.457582
11.6073
-0.131711
11.5335
-0.0778333
11.9583
-0.0451639
10.7383
6.75686
-0.123453
6.82919
-0.0120631
10.6186
0.0910973
11.9359
0.338166
11.3168
0.638819
11.2602
0.0975804
10.3821
-0.379971
7.79419
-0.465692
5.68634
-0.381142
5.23103
-0.308115
4.88362
-0.208155
4.7411
-0.0979456
4.657
0.0233403
4.62257
0.134287
4.65191
0.235558
4.74425
0.30897
4.8384
0.394756
5.2578
0.304815
5.70117
-0.172471
7.46018
-0.834522
10.4068
-0.534942
11.2999
-0.281219
11.286
-0.269545
11.9861
-0.110822
10.6294
6.68193
0.0471047
6.78236
0.227005
10.4405
0.276813
11.8876
0.460418
11.1342
0.861133
10.8624
0.722917
10.5192
0.0196985
8.49713
-0.302186
6.00478
-0.313978
5.24182
-0.212979
4.78255
-0.129261
4.65715
-0.0288191
4.55638
0.0755295
4.51789
0.179889
4.54723
0.268352
4.65543
0.351766
4.75429
0.376852
5.23127
0.111707
5.96882
-0.539648
8.11275
-0.775045
10.646
-0.341992
10.8748
-0.12128
11.0753
-0.12352
11.9933
0.00436224
10.4654
6.68757
0.0614933
6.72146
0.286281
10.2168
0.404167
11.7698
0.579409
10.9564
0.8644
10.5716
0.96511
10.4166
0.331535
9.12625
-0.075094
6.4106
-0.210557
5.3783
-0.164226
4.73698
-0.0937963
4.58695
-0.018821
4.48137
0.0729759
4.42585
0.15247
4.46749
0.234447
4.57336
0.305528
4.6839
0.22671
5.31115
-0.160261
6.3547
-0.848527
8.79454
-0.693975
10.4962
-0.410027
10.609
-0.242852
10.9423
-0.189919
11.9014
0.0294162
10.2337
6.72783
-0.0246743
6.74664
0.14546
10.0479
0.264831
11.6518
0.406408
10.8133
0.629719
10.3485
1.01854
10.0242
0.751579
9.40009
0.0708687
7.09682
-0.219526
5.66895
-0.187171
4.7039
-0.128209
4.52757
-0.0569883
4.41015
0.00894479
4.35985
0.0732786
4.40315
0.135029
4.51172
0.165643
4.65342
-0.0976431
5.57419
-0.757364
7.01436
-1.20337
9.2455
-0.797642
10.0934
-0.580869
10.4071
-0.472881
10.8332
-0.289089
11.7382
-0.046513
9.94302
6.66837
-0.0224872
6.76998
0.236665
9.79181
0.431876
11.4564
0.533709
10.7116
0.732871
10.1467
1.01087
9.74424
0.976399
9.43092
0.393652
7.67984
0.0109803
6.05031
-0.100035
4.81504
-0.0628828
4.49152
-0.0141973
4.36183
0.0361923
4.30941
0.0907324
4.34862
0.135229
4.46665
0.0695349
4.71891
-0.277625
5.92325
-0.865332
7.60331
-1.02836
9.40939
-0.710466
9.78365
-0.498485
10.2001
-0.402237
10.7349
-0.161692
11.4242
0.092864
9.66176
6.72724
0.0243034
6.74887
0.281102
9.5335
0.546795
11.1911
0.632639
10.6219
0.787272
9.9866
0.969942
9.55563
1.31824
9.08551
0.91333
8.08808
0.196398
6.77284
8.39404e-05
5.01292
-0.0150264
4.50676
0.00999112
4.33676
0.0312651
4.2881
0.0647889
4.31513
0.0677415
4.46443
-0.109729
4.89726
-0.809522
6.62528
-1.21729
8.01296
-0.981595
9.18019
-0.765145
9.57113
-0.574166
10.0085
-0.456526
10.6045
-0.193688
11.1367
0.0430902
9.41724
6.74103
0.0720139
-1.18486
0.117354
-1.5112
0.15384
-1.71353
0.159122
-1.93193
0.139118
-1.98092
0.0638055
-1.8332
-0.007919
-1.6188
-0.0712332
-1.41092
-0.0995159
-1.28668
-0.136646
-1.16175
-0.156725
-1.13178
-0.181438
-1.1816
-0.22651
-1.33318
-0.250584
-1.52635
-0.256915
-1.64792
-0.252799
-1.7572
-0.274285
-1.95109
-0.277337
-2.03094
-0.270816
-2.09015
-0.270067
-2.13525
-0.258956
-2.16752
-0.238419
-2.19456
-0.210136
-2.21657
-0.176732
-2.24694
-0.139514
-2.27369
-0.104578
-2.30625
-0.0725107
-2.32791
-0.044416
-2.35558
-0.014152
-2.3561
-2.32659
0.146505
-1.3263
0.203735
-1.59593
0.236195
-1.78654
0.262559
-2.03048
0.198882
-2.00642
0.113327
-1.87816
0.0193498
-1.72357
-0.0508633
-1.55001
-0.107694
-1.41973
-0.137204
-1.30798
-0.158939
-1.29037
-0.179428
-1.35811
-0.202854
-1.50903
-0.219459
-1.6129
-0.230976
-1.69154
-0.247331
-1.77689
-0.275394
-1.92524
-0.274959
-1.97242
-0.259272
-2.00979
-0.250525
-2.0343
-0.235088
-2.05771
-0.213366
-2.0806
-0.185916
-2.10302
-0.155189
-2.13333
-0.122971
-2.1603
-0.0943628
-2.19134
-0.0697104
-2.21222
-0.0490501
-2.23626
-0.0242582
-2.24287
-2.21797
0.0847803
-1.37785
0.110551
-1.63952
0.132709
-1.83928
0.151011
-2.07228
0.111726
-2.02589
0.0116668
-1.91121
-0.0797205
-1.80672
-0.134598
-1.7126
-0.192893
-1.58923
-0.218987
-1.51173
-0.236666
-1.48089
-0.252214
-1.53034
-0.268553
-1.6271
-0.280632
-1.67356
-0.292521
-1.71338
-0.327374
-1.77967
-0.341234
-1.8628
-0.326019
-1.89603
-0.309982
-1.91746
-0.294047
-1.93287
-0.270059
-1.95441
-0.240286
-1.9748
-0.207718
-1.99631
-0.173596
-2.02401
-0.138474
-2.0518
-0.106918
-2.08211
-0.0800704
-2.1038
-0.054678
-2.12621
-0.0280887
-2.13553
-2.11362
0.0326545
-1.42354
0.0418595
-1.69136
0.0609567
-1.87004
0.0655161
-2.10139
0.0117603
-2.03297
-0.0814794
-1.88245
-0.152348
-1.7948
-0.211564
-1.73792
-0.255938
-1.67661
-0.27746
-1.62426
-0.295494
-1.59341
-0.310397
-1.61059
-0.325336
-1.66864
-0.335034
-1.66757
-0.347491
-1.69372
-0.38565
-1.75079
-0.386765
-1.80022
-0.367844
-1.81587
-0.344692
-1.82632
-0.318965
-1.83886
-0.286999
-1.85639
-0.253941
-1.87353
-0.219429
-1.89327
-0.183966
-1.92004
-0.148217
-1.9493
-0.116045
-1.97966
-0.0873572
-2.00341
-0.0584087
-2.02685
-0.0296149
-2.03504
-2.01057
0.0331593
-1.46193
0.0198563
-1.70762
0.0298497
-1.88081
0.0318223
-2.1033
-0.0323166
-2.0179
-0.116865
-1.8619
-0.184998
-1.77618
-0.240608
-1.72927
-0.27771
-1.68369
-0.29859
-1.63134
-0.315507
-1.60811
-0.330462
-1.6202
-0.345552
-1.65006
-0.358546
-1.6391
-0.373367
-1.65827
-0.397265
-1.70099
-0.390078
-1.72115
-0.368834
-1.72609
-0.343481
-1.73196
-0.316047
-1.74268
-0.28361
-1.75695
-0.249545
-1.7725
-0.21486
-1.79256
-0.180076
-1.81935
-0.145509
-1.84934
-0.113325
-1.87912
-0.0841431
-1.90399
-0.0553228
-1.9288
-0.0281466
-1.93837
-1.91064
0.0135474
-1.49811
-0.0106375
-1.71446
0.00395746
-1.87377
-0.00330735
-2.04282
-0.0816525
-1.95229
-0.162562
-1.79466
-0.222281
-1.72356
-0.268814
-1.68723
-0.297772
-1.64345
-0.314256
-1.61352
-0.331709
-1.60261
-0.347268
-1.60881
-0.363276
-1.60268
-0.374236
-1.59086
-0.388142
-1.59907
-0.399573
-1.62495
-0.389895
-1.62832
-0.367414
-1.63062
-0.341031
-1.63496
-0.312731
-1.64582
-0.279445
-1.65971
-0.244626
-1.67569
-0.210861
-1.69675
-0.17696
-1.72333
-0.143566
-1.75184
-0.113741
-1.77781
-0.084183
-1.80185
-0.0566073
-1.82719
-0.028088
-1.83902
-1.81038
-0.00235587
-1.51863
-0.0412758
-1.69305
-0.0474169
-1.82499
-0.0551212
-1.93197
-0.145018
-1.83325
-0.215829
-1.67624
-0.269976
-1.6081
-0.309069
-1.58057
-0.328556
-1.56422
-0.341828
-1.54567
-0.356029
-1.54013
-0.369787
-1.53387
-0.385661
-1.5216
-0.393105
-1.51491
-0.404022
-1.51709
-0.40123
-1.53076
-0.387386
-1.52807
-0.364289
-1.533
-0.337632
-1.53864
-0.309805
-1.55082
-0.277291
-1.56654
-0.242639
-1.58392
-0.209862
-1.60525
-0.176229
-1.62611
-0.143302
-1.64584
-0.113431
-1.64508
-0.0847203
-1.66159
-0.0572869
-1.68994
-0.0302214
-1.70148
-1.67685
-0.03041
-1.51219
-0.0879838
-1.62543
-0.106547
-1.7245
-0.107592
-1.78768
-0.201915
-1.66843
-0.269469
-1.51938
-0.31799
-1.45978
-0.352575
-1.43867
-0.366587
-1.44471
-0.376838
-1.43136
-0.387436
-1.42921
-0.395101
-1.4215
-0.403141
-1.41857
-0.408309
-1.4133
-0.412577
-1.41658
-0.406338
-1.42485
-0.389604
-1.42634
-0.365757
-1.43719
-0.338951
-1.44606
-0.311714
-1.46016
-0.280077
-1.47911
-0.246724
-1.49751
-0.211691
-1.51357
-0.175019
-1.48747
-0.142267
-1.53282
-0.112657
-1.56636
-0.0846697
-1.5954
-0.0579422
-1.62089
-0.0284319
-1.63106
-1.60443
-0.0514878
-1.48031
-0.125377
-1.51827
-0.164449
-1.58415
-0.171356
-1.61278
-0.25613
-1.48957
-0.312717
-1.35374
-0.354046
-1.30334
-0.376466
-1.29385
-0.397684
-1.30652
-0.4043
-1.31461
-0.41246
-1.31242
-0.417591
-1.30902
-0.42018
-1.31439
-0.421804
-1.31184
-0.42084
-1.3154
-0.410833
-1.32316
-0.392877
-1.3281
-0.368903
-1.34771
-0.34216
-1.36185
-0.314749
-1.37916
-0.283892
-1.4013
-0.249777
-1.42059
-0.213066
-1.41623
-0.178148
-1.43652
-0.146728
-1.47206
-0.116642
-1.51282
-0.0894571
-1.54499
-0.0623358
-1.57265
-0.0330765
-1.58619
-1.56143
-0.0797744
-1.41118
-0.161303
-1.38627
-0.212854
-1.42291
-0.21593
-1.44288
-0.297743
-1.32962
-0.348279
-1.21013
-0.379039
-1.17283
-0.404121
-1.17256
-0.424072
-1.19424
-0.430626
-1.22563
-0.43795
-1.22225
-0.44296
-1.22225
-0.443398
-1.23088
-0.438288
-1.22706
-0.43065
-1.22891
-0.417705
-1.23234
-0.398441
-1.2418
-0.375023
-1.26886
-0.348015
-1.29002
-0.319689
-1.31195
-0.288444
-1.33705
-0.254761
-1.3549
-0.220494
-1.37639
-0.185437
-1.40462
-0.151471
-1.44006
-0.120972
-1.47724
-0.092825
-1.50709
-0.0654564
-1.5342
-0.0339004
-1.55288
-1.52842
-0.0989175
-1.30993
-0.185569
-1.23461
-0.25375
-1.24838
-0.258282
-1.28072
-0.345724
-1.2079
-0.384947
-1.10209
-0.413533
-1.07967
-0.430956
-1.09266
-0.446624
-1.12501
-0.464742
-1.16008
-0.472249
-1.16869
-0.476851
-1.17056
-0.473779
-1.17565
-0.459937
-1.17037
-0.444579
-1.16324
-0.428157
-1.16167
-0.407071
-1.17535
-0.38415
-1.20738
-0.356391
-1.23714
-0.325868
-1.26418
-0.295012
-1.27396
-0.26278
-1.30084
-0.229077
-1.34581
-0.19282
-1.38189
-0.158047
-1.41768
-0.126473
-1.451
-0.0975947
-1.47809
-0.0675915
-1.50591
-0.0350248
-1.52593
-1.501
-0.118185
-1.17531
-0.209102
-1.08242
-0.270009
-1.08127
-0.287285
-1.1228
-0.377644
-1.087
-0.417764
-1.01377
-0.446386
-1.01282
-0.466484
-1.04331
-0.482676
-1.08688
-0.503111
-1.12153
-0.512668
-1.14256
-0.514301
-1.14464
-0.507042
-1.14812
-0.487792
-1.13846
-0.464639
-1.12427
-0.443206
-1.11859
-0.420485
-1.13525
-0.396333
-1.17106
-0.36896
-1.20532
-0.335004
-1.23745
-0.305261
-1.24891
-0.272253
-1.28525
-0.237156
-1.32468
-0.199729
-1.36671
-0.164326
-1.3981
-0.132002
-1.42976
-0.100931
-1.45562
-0.0671504
-1.48434
-0.0330115
-1.50108
-1.47236
-0.127596
-1.0235
-0.218317
-0.941884
-0.276694
-0.922079
-0.306096
-0.976127
-0.400176
-0.984406
-0.443169
-0.945983
-0.475373
-0.963887
-0.500998
-1.00943
-0.52171
-1.06033
-0.541004
-1.10138
-0.55296
-1.132
-0.552397
-1.13614
-0.540771
-1.14179
-0.516691
-1.12734
-0.48909
-1.11049
-0.461818
-1.09613
-0.438054
-1.11813
-0.411912
-1.15134
-0.380167
-1.18623
-0.348621
-1.21882
-0.315006
-1.24205
-0.279698
-1.2816
-0.242405
-1.31689
-0.204073
-1.35639
-0.16845
-1.38844
-0.135837
-1.41828
-0.103566
-1.44207
-0.0690978
-1.46923
-0.0340463
-1.48316
-1.45233
-0.12752
-0.869455
-0.22536
-0.793098
-0.282623
-0.774987
-0.315051
-0.85087
-0.411267
-0.900724
-0.459836
-0.890419
-0.496918
-0.924359
-0.535259
-0.973299
-0.562372
-1.03287
-0.575274
-1.08514
-0.585677
-1.12495
-0.588521
-1.139
-0.574693
-1.1499
-0.546594
-1.13421
-0.515504
-1.1158
-0.484815
-1.10281
-0.45608
-1.11417
-0.42508
-1.14003
-0.389071
-1.16232
-0.360336
-1.20869
-0.323089
-1.24593
-0.284462
-1.28233
-0.247091
-1.31683
-0.210549
-1.35711
-0.173697
-1.39034
-0.139424
-1.41626
-0.10577
-1.43805
-0.0709394
-1.46237
-0.0350549
-1.47485
-1.44327
-0.129106
-0.71068
-0.231588
-0.641915
-0.287553
-0.644472
-0.319798
-0.742635
-0.41811
-0.824708
-0.485298
-0.828996
-0.521534
-0.876201
-0.550902
-0.938105
-0.58029
-1.00655
-0.602597
-1.0682
-0.618348
-1.11862
-0.623101
-1.14589
-0.609015
-1.16539
-0.578479
-1.15326
-0.545281
-1.13578
-0.511848
-1.12234