/*--------------------------------*- C++ -*----------------------------------*\
| =========                 |                                                 |
| \\      /  F ield         | OpenFOAM: The Open Source CFD Toolbox           |
|  \\    /   O peration     | Version:  2112                                  |
|   \\  /    A nd           | Website:  www.openfoam.com                      |
|    \\/     M anipulation  |                                                 |
\*---------------------------------------------------------------------------*/
FoamFile
{
    version     2.0;
    format      ascii;
    arch        "LSB;label=32;scalar=64";
    class       volScalarField;
    location    "0.00546";
    object      alphat;
}
// * * * * * * * * * * * * * * * * * * * * * * * * * * * * * * * * * * * * * //

dimensions      [1 -1 -1 0 0 0 0];

internalField   nonuniform List<scalar> 
13875
(
0.119862
0.0816022
0.0784505
0.0782872
0.078316
0.0783709
0.078275
0.0782758
0.078312
0.0783042
0.0782774
0.0783054
0.0783833
0.0784131
0.0783908
0.0783031
0.0782537
0.0782853
0.0783021
0.0783562
0.0783238
0.0782626
0.0784853
0.0814427
0.120896
0.103939
0.0576795
0.0570807
0.0571724
0.056645
0.056655
0.0570361
0.0571712
0.0572085
0.0571708
0.0571258
0.057116
0.0566576
0.0566161
0.0566663
0.0571001
0.0571133
0.0571528
0.0570773
0.0566842
0.0566762
0.0571365
0.0570667
0.0573464
0.104633
0.11062
0.0553252
0.0558757
0.0547278
0.0545766
0.0544752
0.0542883
0.0542868
0.0543628
0.0543877
0.0542588
0.0543421
0.0542523
0.0542788
0.0542386
0.0543406
0.0541075
0.0542965
0.0543018
0.0544681
0.0545375
0.0546013
0.05578
0.0550896
0.111319
0.115885
0.054645
0.055383
0.0543244
0.0540452
0.0539388
0.0536818
0.0535868
0.0535779
0.0535431
0.0534109
0.0534921
0.0537063
0.0537421
0.0536921
0.0534927
0.0533835
0.0535007
0.0536611
0.0539288
0.0540077
0.0541998
0.0551945
0.0543056
0.11582
0.121031
0.0546331
0.055119
0.0537501
0.0536755
0.0535118
0.0531782
0.0530997
0.0530894
0.0530444
0.0529193
0.0530038
0.0532278
0.0532684
0.0532149
0.0530051
0.0528983
0.0529868
0.0531364
0.0534895
0.0536123
0.0536118
0.0550178
0.0543255
0.121316
0.124408
0.0547438
0.055187
0.0536079
0.0533043
0.053108
0.0527961
0.0526973
0.0526919
0.0526007
0.0524725
0.0525486
0.0527841
0.052855
0.0527674
0.0525466
0.05247
0.0525749
0.0527594
0.0530836
0.0532481
0.0535038
0.0548861
0.0543944
0.124011
0.128747
0.0564736
0.0557818
0.0534521
0.0532736
0.0529021
0.0524394
0.0523237
0.0523095
0.052219
0.0520959
0.0521748
0.0524236
0.052483
0.0524003
0.0521561
0.0521005
0.052191
0.0523858
0.0528727
0.0532029
0.0533618
0.0556447
0.0563565
0.128923
0.135707
0.0611959
0.0578368
0.0544077
0.0534232
0.0528756
0.0523163
0.0520994
0.0520371
0.0519189
0.0518057
0.0518473
0.0521307
0.0521967
0.0520923
0.0518339
0.0518353
0.0519578
0.0522549
0.0528189
0.053346
0.0542773
0.057522
0.0610313
0.13558
0.151314
0.0692413
0.0615438
0.0559087
0.0544198
0.0531833
0.0523078
0.0519676
0.0518554
0.0517435
0.0516527
0.05167
0.051986
0.0520541
0.0519413
0.0516454
0.0516967
0.0518483
0.0522013
0.0531074
0.0542346
0.0556123
0.0610258
0.068409
0.154248
0.239312
0.0874332
0.0664759
0.0590274
0.0554628
0.0537932
0.0526545
0.0521572
0.0519276
0.0518192
0.0517595
0.0517558
0.0520895
0.0521689
0.0520442
0.0517597
0.0518309
0.052018
0.0524996
0.0536439
0.0553166
0.0586943
0.0660328
0.0867015
0.241213
0.36539
0.118362
0.075933
0.0629049
0.0577023
0.0549294
0.0533199
0.052747
0.0524518
0.0523519
0.0523123
0.0522892
0.0526009
0.0526926
0.0525992
0.0523717
0.0524341
0.0526876
0.0531509
0.0547069
0.0573578
0.0618156
0.0747574
0.112889
0.365363
0.658204
0.193215
0.104046
0.0746785
0.0619908
0.057573
0.0554346
0.0543894
0.0539323
0.0537787
0.0537175
0.0536823
0.0539208
0.0540425
0.0540294
0.053926
0.0540121
0.0544387
0.0552943
0.0572722
0.0619858
0.0734963
0.100462
0.183094
0.643479
0.582159
0.437044
0.175984
0.0921234
0.0770727
0.0654905
0.0601451
0.058333
0.0574812
0.0571677
0.0570458
0.0569967
0.0571246
0.0572732
0.0573753
0.057438
0.0576888
0.0585571
0.06009
0.0656138
0.076408
0.0890878
0.170583
0.434015
0.580401
0.491974
0.401591
0.347031
0.330685
0.118378
0.0815743
0.0748227
0.0689542
0.0665968
0.0657099
0.0653525
0.065162
0.0651863
0.0653863
0.0656791
0.0661085
0.0670659
0.0696564
0.0761103
0.0859187
0.131743
0.331426
0.337585
0.400954
0.500575
0.407626
0.350389
0.331836
0.341261
0.302573
0.205764
0.129438
0.10172
0.0927949
0.0905095
0.090053
0.0898205
0.0898951
0.0901284
0.0904819
0.0908542
0.0926834
0.101349
0.134415
0.204343
0.309439
0.334297
0.331083
0.360596
0.420176
0.332164
0.298167
0.286702
0.311315
0.327335
0.333127
0.262797
0.199384
0.176378
0.15582
0.143817
0.138523
0.137089
0.13804
0.141909
0.152995
0.176756
0.197503
0.253347
0.340647
0.324155
0.309749
0.291248
0.299492
0.343594
0.243048
0.23068
0.237905
0.289142
0.344294
0.425248
0.595414
0.722063
0.686913
0.619999
0.629275
0.643807
0.651301
0.649185
0.637064
0.613425
0.654705
0.724639
0.630286
0.445417
0.350446
0.288245
0.236759
0.237269
0.253764
0.14867
0.164204
0.201997
0.268764
0.359891
0.484015
0.646974
0.725721
0.580478
0.497789
0.484221
0.486892
0.492705
0.491816
0.489722
0.501414
0.574843
0.703871
0.662345
0.49704
0.378329
0.281821
0.197575
0.152072
0.137272
0.0707803
0.110295
0.191361
0.313486
0.413209
0.446843
0.510747
0.553957
0.486185
0.423364
0.400331
0.397934
0.401184
0.402338
0.402104
0.416413
0.470361
0.539216
0.519797
0.45762
0.430128
0.336317
0.199087
0.111644
0.0720358
0.0280763
0.0577261
0.144398
0.302002
0.377397
0.364336
0.387339
0.436391
0.431035
0.393033
0.36569
0.354615
0.353907
0.358122
0.365221
0.38292
0.413902
0.424049
0.388719
0.36902
0.385363
0.315936
0.14974
0.0584549
0.0272499
0.0568359
0.077071
0.128885
0.22379
0.28347
0.281328
0.30543
0.361119
0.383616
0.361104
0.331365
0.314838
0.311525
0.318489
0.330946
0.350618
0.366295
0.348884
0.303573
0.283539
0.287923
0.225783
0.128969
0.0793278
0.0567205
0.121263
0.128408
0.14487
0.170919
0.214245
0.219221
0.251945
0.308648
0.339144
0.322821
0.293154
0.274541
0.270171
0.277843
0.292303
0.312304
0.32252
0.298594
0.248528
0.218047
0.216658
0.169734
0.145157
0.137408
0.120097
0.149789
0.141649
0.142252
0.141769
0.168743
0.178574
0.215185
0.268233
0.297815
0.284342
0.256144
0.237824
0.23244
0.240051
0.254216
0.273045
0.282071
0.259176
0.212033
0.175994
0.16849
0.142266
0.14345
0.161912
0.152186
0.185232
0.14879
0.13434
0.127129
0.140174
0.153858
0.186737
0.231687
0.258591
0.246319
0.220397
0.20394
0.199503
0.206221
0.219219
0.23616
0.243527
0.222024
0.183277
0.1512
0.14019
0.126429
0.135145
0.160725
0.192183
0.215593
0.158057
0.131978
0.118406
0.123677
0.137
0.163873
0.200518
0.22282
0.212522
0.190135
0.175825
0.171646
0.178121
0.18977
0.204765
0.211502
0.192319
0.159849
0.134926
0.123093
0.119091
0.132666
0.165304
0.22423
0.239388
0.172503
0.129373
0.113902
0.112207
0.123275
0.145375
0.174064
0.192705
0.183236
0.164449
0.151469
0.148154
0.153456
0.16381
0.176114
0.181465
0.166099
0.14199
0.121634
0.111917
0.114691
0.129753
0.172509
0.246586
0.259268
0.176765
0.125914
0.11014
0.10513
0.113636
0.130812
0.153523
0.166356
0.157961
0.142269
0.131577
0.128462
0.133622
0.14243
0.152804
0.157944
0.146288
0.126679
0.111981
0.104296
0.111002
0.127089
0.186481
0.264999
0.281272
0.187736
0.12456
0.107109
0.100441
0.104861
0.118016
0.134567
0.144307
0.136426
0.123549
0.114365
0.112008
0.116198
0.12412
0.132907
0.137402
0.128972
0.114732
0.103706
0.100442
0.10798
0.126273
0.201405
0.290953
0.312194
0.205725
0.125851
0.104
0.0949818
0.0987905
0.108002
0.121041
0.126588
0.119434
0.108293
0.100585
0.0981392
0.102134
0.108528
0.115749
0.120302
0.115295
0.104673
0.097298
0.0950992
0.10466
0.126027
0.212271
0.315358
0.35291
0.222124
0.12554
0.100698
0.0927048
0.0944838
0.0996446
0.107401
0.110744
0.103992
0.0950138
0.0883782
0.0865888
0.0898138
0.0956692
0.101759
0.105754
0.102873
0.0963804
0.0925681
0.0926824
0.101541
0.127945
0.228446
0.338317
0.369843
0.234938
0.129906
0.0987483
0.0878565
0.0904236
0.0925557
0.0975409
0.0978378
0.0917676
0.0841018
0.0786913
0.0767344
0.0799936
0.0847496
0.0900824
0.0943749
0.0937376
0.0898386
0.088212
0.0872667
0.0990053
0.131072
0.24608
0.365683
0.376814
0.239936
0.135505
0.0970513
0.0861355
0.0865588
0.0862776
0.0883295
0.0875483
0.0815317
0.0751131
0.0700606
0.0685652
0.0711999
0.0755908
0.0799224
0.0837535
0.0847467
0.0837884
0.0846797
0.085734
0.0973674
0.136323
0.255294
0.37804
0.387429
0.238737
0.141944
0.0974258
0.0830658
0.0826588
0.0809391
0.0814437
0.0783527
0.0731311
0.0673626
0.0632135
0.0615935
0.0642931
0.0679222
0.0721895
0.0761462
0.0780944
0.0781909
0.0798083
0.0819775
0.0972547
0.142623
0.257041
0.385151
0.397081
0.240354
0.151828
0.0982457
0.0821996
0.0793177
0.0756671
0.0744701
0.0705252
0.0657153
0.061052
0.0570601
0.0557839
0.0579908
0.0615826
0.0650837
0.0686749
0.0715148
0.0738272
0.0775123
0.0807797
0.0975972
0.150702
0.254213
0.395865
0.401437
0.239652
0.162372
0.103108
0.0810767
0.0753148
0.0709457
0.0696029
0.0644876
0.0601301
0.055543
0.0521891
0.0507849
0.0530093
0.0559721
0.0594911
0.063013
0.0666271
0.0684469
0.0727729
0.0791266
0.10068
0.163955
0.250515
0.40584
0.407648
0.23635
0.161818
0.106677
0.0829184
0.073061
0.0668118
0.0642963
0.0586819
0.0546483
0.050985
0.0477084
0.0465926
0.04847
0.0514753
0.0542789
0.0575347
0.0619479
0.0652521
0.0711875
0.0810369
0.105748
0.165404
0.244514
0.408395
0.409434
0.230722
0.16158
0.115989
0.0836658
0.0699993
0.0628628
0.0599116
0.054415
0.050882
0.0469517
0.0441251
0.0429111
0.0447987
0.047344
0.0504968
0.0534354
0.0580163
0.0606826
0.0679973
0.0815647
0.11422
0.164524
0.23754
0.41205
0.402446
0.225715
0.160442
0.12882
0.0884313
0.0700383
0.0605004
0.0561291
0.0500307
0.0467779
0.04367
0.0408969
0.0398555
0.0414773
0.0440185
0.0464758
0.0491283
0.0543766
0.0592498
0.0682372
0.0861426
0.126844
0.162991
0.232884
0.405403
0.398504
0.221453
0.156753
0.134046
0.092419
0.0690028
0.0580368
0.0525704
0.0470204
0.0440941
0.0406435
0.0382084
0.0371398
0.0387589
0.040994
0.0438861
0.0462737
0.0510824
0.0560448
0.0673676
0.0910294
0.135045
0.160352
0.228676
0.390828
0.390738
0.220818
0.150939
0.133338
0.101767
0.0709189
0.0573926
0.050334
0.0438971
0.0408899
0.0381997
0.035835
0.0348901
0.0363281
0.0385582
0.0407702
0.0432243
0.0490856
0.0561798
0.0690256
0.100479
0.134902
0.154099
0.222563
0.384515
0.381319
0.220385
0.144082
0.13262
0.115115
0.072832
0.057003
0.0480428
0.0420544
0.0391822
0.035969
0.0338472
0.0328755
0.0342668
0.0362419
0.039061
0.0413849
0.046591
0.0550662
0.0710973
0.114188
0.133537
0.145838
0.220845
0.380769
0.379074
0.219875
0.137628
0.128059
0.118956
0.078229
0.0576643
0.0477374
0.0401769
0.0366978
0.0341565
0.0320229
0.031166
0.0324395
0.0344506
0.036541
0.0396067
0.046525
0.0568459
0.0768036
0.119112
0.129832
0.139165
0.219354
0.376152
0.373431
0.218983
0.132727
0.122263
0.118139
0.086487
0.0594423
0.0470269
0.0393559
0.036025
0.0325002
0.0305482
0.0296714
0.030921
0.0327613
0.0359587
0.0388847
0.0457613
0.0580122
0.085638
0.118636
0.123557
0.133201
0.217464
0.374497
0.368633
0.219271
0.129635
0.115057
0.115782
0.100311
0.0638822
0.0479009
0.0395957
0.0345562
0.0313862
0.029187
0.0283424
0.0295074
0.0315845
0.0341973
0.0391997
0.0467835
0.0628405
0.099506
0.115502
0.115445
0.128946
0.217446
0.370662
0.364314
0.216896
0.126173
0.110585
0.111123
0.0998676
0.0713133
0.0490509
0.0392292
0.0348629
0.0305072
0.0283095
0.0272909
0.0286048
0.0306702
0.0346241
0.0389794
0.0480508
0.0714751
0.100242
0.11074
0.110821
0.127053
0.215163
0.363133
0.359868
0.21683
0.125642
0.105845
0.104559
0.0986716
0.0828538
0.0529615
0.0405647
0.0344485
0.0302656
0.0275723
0.0265065
0.0278281
0.0304114
0.0341342
0.0402435
0.0525086
0.0844207
0.0985853
0.103752
0.105758
0.1256
0.21321
0.359666
0.350202
0.213205
0.125395
0.103494
0.0992975
0.0956533
0.0849158
0.0599971
0.0415625
0.0351573
0.0302695
0.02755
0.0261355
0.027821
0.0303805
0.0348592
0.0410621
0.0596975
0.0853965
0.0957205
0.0986666
0.103152
0.124778
0.210255
0.350566
0.341585
0.211069
0.124907
0.100797
0.0951966
0.0908375
0.0843644
0.0709136
0.0464142
0.0355081
0.0304861
0.0274551
0.0262298
0.0277156
0.0306454
0.0353132
0.0462617
0.0714949
0.0847253
0.0905971
0.094468
0.10054
0.125176
0.208257
0.340649
0.318083
0.203333
0.123179
0.0995052
0.0915333
0.0860025
0.0822597
0.0741941
0.0526697
0.0379336
0.0309336
0.0277866
0.02632
0.0280528
0.0311027
0.038046
0.0525999
0.0737421
0.0825033
0.086042
0.0911224
0.0996618
0.123555
0.200316
0.317238
0.285921
0.193
0.121011
0.0966965
0.0892623
0.0826604
0.0791391
0.0735596
0.0638958
0.0432793
0.0324353
0.0280589
0.0266357
0.0282465
0.032647
0.0434164
0.0636032
0.0730614
0.0787848
0.0825557
0.0887059
0.0964643
0.120343
0.189857
0.286166
0.171369
0.457827
0.630013
0.747352
0.788787
0.79221
0.79425
0.811752
0.846578
0.881283
0.917865
0.937784
0.922991
0.773232
0.694149
0.65326
0.616472
0.58776
0.565599
0.551363
0.538647
0.526037
0.516108
0.50459
0.485907
0.449335
0.397149
0.325854
0.231619
0.105638
0.171556
0.463086
0.619148
0.713347
0.730051
0.724473
0.726865
0.752861
0.798753
0.84695
0.889534
0.915277
0.910655
0.792436
0.698072
0.653032
0.613639
0.571565
0.548893
0.534078
0.520032
0.507284
0.497083
0.485381
0.468123
0.432875
0.381523
0.311475
0.220718
0.102883
0.19197
0.48573
0.606354
0.663629
0.660761
0.649265
0.66051
0.693405
0.741242
0.800677
0.847667
0.884592
0.889509
0.807997
0.701729
0.64704
0.603969
0.556842
0.528854
0.51295
0.497733
0.48502
0.474585
0.462975
0.446185
0.412302
0.362211
0.294141
0.208086
0.0991436
0.204051
0.494768
0.570737
0.594801
0.577189
0.570034
0.579034
0.618084
0.672755
0.740786
0.795327
0.840095
0.862487
0.835325
0.707445
0.642633
0.595597
0.546688
0.510579
0.492623
0.476615
0.463305
0.452387
0.440507
0.423431
0.390803
0.342371
0.27739
0.196383
0.0956884
0.210745
0.487146
0.518873
0.516147
0.491724
0.488769
0.498737
0.53835
0.596822
0.670548
0.736237
0.785441
0.82417
0.824424
0.710546
0.638372
0.588761
0.536405
0.492352
0.472038
0.455446
0.44113
0.429619
0.417115
0.399344
0.367975
0.321982
0.261312
0.185828
0.0930468
0.214396
0.468536
0.455992
0.439378
0.40891
0.409548
0.421107
0.461681
0.522366
0.598579
0.671231
0.727258
0.777583
0.794489
0.712968
0.632771
0.584162
0.527702
0.479347
0.452884
0.435004
0.420006
0.407904
0.394762
0.376367
0.346278
0.30316
0.245969
0.17576
0.0905606
0.217621
0.437821
0.388272
0.363659
0.335728
0.337864
0.34575
0.389105
0.451965
0.526683
0.60304
0.666644
0.723862
0.754472
0.705816
0.629036
0.578096
0.522807
0.467849
0.43629
0.416129
0.401592
0.388892
0.374785
0.355788
0.325355
0.283774
0.228207
0.162148
0.0850759
0.220763
0.396997
0.323367
0.296778
0.281828
0.283619
0.282506
0.321925
0.385848
0.457949
0.534568
0.60394
0.667899
0.708756
0.687602
0.612834
0.569609
0.51873
0.459285
0.421342
0.397815
0.383225
0.370013
0.354775
0.335374
0.303263
0.258907
0.205083
0.145637
0.0785062
0.220998
0.352997
0.271904
0.269727
0.296218
0.300562
0.281392
0.269132
0.326185
0.394068
0.467684
0.541227
0.610037
0.658428
0.663073
0.591414
0.562096
0.512941
0.452294
0.404423
0.377256
0.360343
0.345376
0.328117
0.304336
0.272114
0.232177
0.184995
0.132838
0.0740048
0.218381
0.314982
0.263403
0.307549
0.334144
0.340811
0.319914
0.277506
0.278104
0.338172
0.405776
0.480581
0.553488
0.607948
0.628635
0.56811
0.553672
0.506637
0.445128
0.38848
0.354617
0.334662
0.317936
0.299264
0.276915
0.248362
0.213082
0.171096
0.124238
0.0710423
0.212638
0.291546
0.302111
0.342463
0.366148
0.37553
0.354211
0.308651
0.25838
0.292082
0.352658
0.42471
0.498059
0.55981
0.592282
0.546708
0.531975
0.50453
0.439516
0.374827
0.332636
0.310882
0.294556
0.276957
0.256089
0.229552
0.197184
0.159072
0.116679
0.0683614
0.203775
0.285894
0.341418
0.37293
0.402492
0.407362
0.390116
0.336721
0.269613
0.258424
0.309354
0.375735
0.450808
0.515203
0.55469
0.525201
0.506031
0.511954
0.440276
0.363658
0.315536
0.290517
0.274532
0.2576
0.237782
0.212978
0.183231
0.148537
0.110072
0.0659846
0.192812
0.300787
0.376222
0.403276
0.429611
0.431616
0.413796
0.356488
0.27908
0.239052
0.274933
0.337793
0.410604
0.474896
0.519018
0.503624
0.479345
0.496888
0.456993
0.359564
0.301863
0.27418
0.257116
0.240591
0.2216
0.198369
0.170949
0.139269
0.104217
0.0638675
0.182909
0.338949
0.406597
0.424137
0.442938
0.441017
0.41647
0.370818
0.284522
0.235051
0.248668
0.308059
0.377583
0.440922
0.488953
0.48327
0.456334
0.475795
0.490196
0.367172
0.292457
0.260492
0.241369
0.225454
0.207178
0.185376
0.160043
0.131058
0.0990454
0.0620125
0.177968
0.377849
0.434159
0.439255
0.456629
0.450679
0.413001
0.374913
0.288173
0.233262
0.235883
0.288153
0.353531
0.414652
0.464305
0.465467
0.43527
0.454456
0.482886
0.401908
0.291509
0.248952
0.228075
0.211711
0.194092
0.173711
0.15031
0.123744
0.0945005
0.0603406
0.176904
0.414457
0.459374
0.454438
0.477007
0.465744
0.409578
0.372566
0.291936
0.232664
0.23178
0.281825
0.340887
0.396811
0.445227
0.448788
0.41748
0.435907
0.463835
0.461
0.305521
0.24184
0.216854
0.198982
0.182056
0.163061
0.141422
0.117077
0.0903461
0.0587582
0.178487
0.448361
0.483022
0.467002
0.491207
0.467314
0.412784
0.370702
0.302666
0.240337
0.238254
0.285213
0.337577
0.38757
0.434272
0.432498
0.403286
0.419595
0.441345
0.460909
0.358333
0.243432
0.207064
0.187163
0.170871
0.15315
0.133059
0.110679
0.0862347
0.0570557
0.182017
0.47982
0.503582
0.473895
0.493753
0.466584
0.425819
0.379221
0.316313
0.260916
0.259478
0.296317
0.340477
0.386819
0.432764
0.418988
0.39387
0.405578
0.424586
0.442173
0.425964
0.264002
0.201533
0.177598
0.160075
0.14371
0.125062
0.104453
0.0820412
0.0551609
0.185848
0.508295
0.521288
0.477699
0.489211
0.471372
0.443601
0.399193
0.336677
0.286087
0.289042
0.311771
0.35036
0.396707
0.434929
0.408595
0.389656
0.394506
0.409737
0.421746
0.425456
0.33564
0.206945
0.169493
0.150194
0.134641
0.117373
0.0984198
0.0780003
0.0532638
0.191991
0.535712
0.53439
0.479269
0.480666
0.48076
0.4641
0.426733
0.366609
0.31333
0.321067
0.340555
0.374499
0.409032
0.435445
0.412023
0.389627
0.388184
0.397292
0.404741
0.407645
0.387678
0.236606
0.167232
0.142842
0.125188
0.110103
0.0929462
0.0744901
0.0515915
0.198853
0.550586
0.536158
0.474975
0.468607
0.48574
0.49101
0.460058
0.413207
0.353918
0.357943
0.380659
0.40155
0.421785
0.435228
0.414483
0.397953
0.388025
0.38748
0.389232
0.389317
0.380078
0.315978
0.178383
0.138074
0.118617
0.102624
0.0878384
0.0712556
0.0500421
0.208627
0.564745
0.530343
0.467592
0.459276
0.485721
0.512286
0.499959
0.46067
0.400715
0.391658
0.410009
0.425541
0.432072
0.423095
0.410395
0.402297
0.39571
0.38249
0.375911
0.371974
0.362071
0.338001
0.216235
0.139645
0.113981
0.0974498
0.0824435
0.0680014
0.0484879
0.203957
0.543688
0.509166
0.455446
0.451928
0.478571
0.52097
0.538055
0.504637
0.441807
0.414918
0.426719
0.441096
0.431658
0.414946
0.404344
0.397622
0.391848
0.380214
0.36683
0.357097
0.345994
0.328537
0.277154
0.152219
0.111892
0.0939447
0.0790726
0.0646205
0.0468417
0.206324
0.523517
0.4786
0.448507
0.446824
0.472364
0.51395
0.559135
0.551424
0.489308
0.439453
0.437849
0.44341
0.426767
0.407198
0.39726
0.389731
0.384882
0.375247
0.361132
0.346557
0.331847
0.313958
0.286943
0.190907
0.114927
0.091509
0.0768333
0.0625436
0.0453383
0.181408
0.426962
0.447716
0.450782
0.449092
0.465223
0.505482
0.558269
0.584828
0.546857
0.473287
0.442876
0.433766
0.423387
0.401927
0.389126
0.38146
0.374953
0.365413
0.353827
0.338878
0.321751
0.299684
0.280163
0.235184
0.128062
0.0912874
0.0750569
0.0612664
0.0445967
0.106336
0.233891
0.328629
0.399611
0.450553
0.485421
0.503565
0.515323
0.525947
0.53826
0.550402
0.565006
0.587634
0.616782
0.654732
0.699817
0.788221
0.930628
0.929287
0.904915
0.867387
0.831423
0.794598
0.777068
0.774451
0.770065
0.732845
0.620321
0.450887
0.171749
0.103576
0.222926
0.314147
0.383745
0.433732
0.467279
0.484331
0.496309
0.507247
0.520192
0.533113
0.548433
0.572133
0.614859
0.654886
0.704552
0.809394
0.908723
0.905311
0.87595
0.831349
0.780969
0.735034
0.707813
0.706547
0.714211
0.696828
0.606998
0.457033
0.171386
0.0998305
0.210189
0.296685
0.364243
0.412898
0.445096
0.461996
0.473761
0.484976
0.498347
0.512043
0.528615
0.558606
0.60577
0.649849
0.709661
0.831029
0.885101
0.873327
0.834066
0.78403
0.72294
0.676315
0.643917
0.634295
0.646713
0.64804
0.592036
0.478071
0.191403
0.0963156
0.198297
0.279707
0.344217
0.391253
0.422317
0.439641
0.451731
0.463356
0.477505
0.491928
0.510272
0.548937
0.59782
0.646722
0.717334
0.841767
0.856097
0.827956
0.782078
0.723589
0.65419
0.600824
0.563095
0.554579
0.56246
0.5779
0.557923
0.485981
0.203188
0.0935769
0.187469
0.263251
0.323459
0.368206
0.398281
0.416311
0.429105
0.441368
0.456329
0.471677
0.493048
0.538863
0.591976
0.64308
0.723398
0.823519
0.815818
0.772369
0.720775
0.652934
0.578316
0.521895
0.483308
0.472327
0.474844
0.503252
0.505267
0.477712
0.209536
0.0910281
0.177193
0.247603
0.30425
0.346204
0.375317
0.393944
0.407526
0.420372
0.435836
0.453051
0.48082
0.531023
0.587809
0.638999
0.724945
0.789651
0.766731
0.714465
0.655418
0.581096
0.505086
0.445875
0.405627
0.394637
0.396373
0.427134
0.443054
0.458524
0.21288
0.0854663
0.163427
0.229768
0.284597
0.325234
0.354796
0.373951
0.388369
0.401786
0.416885
0.437062
0.469791
0.526999
0.581612
0.633649
0.716102
0.748297
0.712545
0.653489
0.586995
0.509772
0.436087
0.374801
0.332845
0.32666
0.32555
0.351894
0.376667
0.427616
0.216566
0.0788248
0.146731
0.206432
0.260083
0.303423
0.334333
0.353805
0.369152
0.383099
0.398461
0.42251
0.462108
0.523057
0.573072
0.616527
0.696813
0.701495
0.656106
0.590276
0.518427
0.442417
0.371829
0.310432
0.275758
0.279535
0.278003
0.287912
0.31375
0.387606
0.219268
0.074343
0.133924
0.186334
0.233222
0.272521
0.304288
0.327619
0.344951
0.360347
0.377819
0.405624
0.455643
0.516884
0.566759
0.596009
0.666263
0.65094
0.598401
0.527582
0.452533
0.38077
0.315379
0.265613
0.287738
0.306181
0.30079
0.271886
0.266442
0.344972
0.219268
0.0712993
0.125128
0.172252
0.214168
0.249069
0.277373
0.299851
0.318291
0.33498
0.355396
0.390697
0.448768
0.510098
0.554661
0.575136
0.62868
0.600973
0.542034
0.467314
0.392585
0.327249
0.271747
0.285474
0.327314
0.345306
0.338087
0.311437
0.265002
0.309225
0.216343
0.0685304
0.117374
0.159983
0.198051
0.230135
0.256471
0.277371
0.294959
0.311404
0.333731
0.377418
0.443247
0.508247
0.532003
0.553951
0.589401
0.551571
0.487105
0.41242
0.341752
0.28343
0.261037
0.31718
0.362979
0.381209
0.371139
0.34564
0.304965
0.288418
0.209851
0.0660935
0.110603
0.149227
0.183893
0.213436
0.238092
0.257929
0.274902
0.291153
0.31701
0.36688
0.444355
0.510812
0.505801
0.53133
0.550495
0.507033
0.440384
0.364659
0.300392
0.253367
0.275678
0.345374
0.397691
0.411909
0.406612
0.377493
0.344307
0.285362
0.200531
0.0639278
0.104628
0.139799
0.171458
0.198724
0.221845
0.240855
0.257432
0.274896
0.303621
0.363504
0.461548
0.493455
0.478398
0.508864
0.514741
0.467175
0.400924
0.328095
0.26662
0.238916
0.285271
0.365234
0.419082
0.434423
0.431852
0.40734
0.379924
0.304149
0.189193
0.0620446
0.0993834
0.131488
0.160459
0.185669
0.207381
0.225684
0.241646
0.261295
0.294713
0.371785
0.488112
0.471987
0.455109
0.488153
0.4842
0.433485
0.369098
0.299829
0.242179
0.237527
0.291106
0.379036
0.422197
0.443653
0.444758
0.427919
0.410138
0.342836
0.179331
0.0603622
0.0947929
0.124099
0.15066
0.173965
0.194291
0.211941
0.228494
0.249888
0.294334
0.406932
0.477689
0.450373
0.433964
0.470533
0.460024
0.407801
0.346186
0.281646
0.231106
0.236385
0.295334
0.380623
0.419438
0.454789
0.460105
0.443756
0.438721
0.381632
0.174814
0.0587816
0.0906155
0.117386
0.141734
0.163299
0.182276
0.199238
0.217321
0.24305
0.30878
0.45929
0.458188
0.431349
0.416087
0.451275
0.441492
0.391046
0.335032
0.276473
0.227338
0.236285
0.299262
0.377499
0.414548
0.470946
0.480494
0.459691
0.464774
0.418262
0.174125
0.0570714
0.0864721
0.110949
0.133354
0.153374
0.171091
0.187509
0.20763
0.245131
0.362027
0.455663
0.435513
0.414914
0.401806
0.435054
0.430778
0.382495
0.332334
0.281257
0.233802
0.243994
0.30922
0.376476
0.418311
0.473859
0.494784
0.472511
0.488599
0.452314
0.175877
0.0551549
0.0821834
0.104664
0.125305
0.143918
0.160281
0.178013
0.202372
0.26608
0.422997
0.436346
0.418848
0.400868
0.392508
0.421534
0.431602
0.382919
0.336068
0.292307
0.256876
0.263425
0.320232
0.385583
0.431053
0.47218
0.498121
0.479596
0.509627
0.483795
0.1795
0.0532105
0.078035
0.0985742
0.117562
0.134765
0.150491
0.169985
0.208287
0.337171
0.419654
0.415919
0.404178
0.38986
0.388209
0.411944
0.434524
0.392785
0.345883
0.306974
0.288319
0.2881
0.340101
0.406015
0.448363
0.475644
0.493462
0.483604
0.527509
0.512228
0.183593
0.0515365
0.0744921
0.0930821
0.110255
0.125365
0.143124
0.16799
0.238617
0.383368
0.401662
0.399025
0.391881
0.383955
0.388542
0.415967
0.436313
0.405538
0.369983
0.335301
0.318016
0.315093
0.371405
0.43266
0.468875
0.484235
0.484208
0.484058
0.541591
0.540094
0.189684
0.0500034
0.071315
0.0879087
0.102781
0.11894
0.138547
0.179575
0.315756
0.37479
0.383874
0.383771
0.382463
0.384584
0.400593
0.416267
0.437836
0.420407
0.400319
0.376201
0.352553
0.354793
0.418758
0.466269
0.495399
0.488083
0.47105
0.479477
0.543236
0.554841
0.197258
0.0484001
0.0679777
0.0825246
0.0976692
0.114405
0.140583
0.218996
0.334319
0.357226
0.366659
0.370891
0.378324
0.395885
0.403454
0.411733
0.425944
0.432704
0.425836
0.406945
0.389104
0.403604
0.465189
0.504105
0.515078
0.485845
0.460597
0.472161
0.537637
0.56927
0.206848
0.0465275
0.0644866
0.0791452
0.0941659
0.112479
0.153911
0.276244
0.324032
0.341253
0.352121
0.362588
0.379141
0.394283
0.397465
0.405627
0.417555
0.43348
0.441885
0.424961
0.415536
0.447161
0.509431
0.540248
0.522329
0.478807
0.453008
0.459963
0.516255
0.54959
0.202691
0.0452182
0.0624793
0.076874
0.0916742
0.115844
0.194154
0.283893
0.309638
0.327822
0.34154
0.358871
0.374353
0.384467
0.389231
0.398276
0.410003
0.43176
0.443787
0.437197
0.44263
0.496915
0.555968
0.560216
0.514863
0.473761
0.44906
0.452901
0.484675
0.52983
0.205007
0.0445136
0.0612001
0.0750749
0.0915334
0.129776
0.234754
0.276823
0.296668
0.318428
0.336223
0.3522
0.364593
0.37254
0.381158
0.390617
0.404862
0.42675
0.43385
0.444156
0.479944
0.556053
0.588146
0.557783
0.507158
0.467318
0.451958
0.454526
0.453329
0.432751
0.180495
0.542671
0.529724
0.515234
0.501433
0.485567
0.469008
0.449717
0.431188
0.411285
0.392257
0.372284
0.353954
0.335387
0.3184
0.301088
0.286171
0.271019
0.257645
0.245528
0.233228
0.222681
0.212306
0.202963
0.194581
0.186668
0.179664
0.173339
0.167703
0.162524
0.157814
0.153708
0.150143
0.147186
0.145455
0.145203
0.146106
0.148146
0.151628
0.156603
0.163102
0.169897
0.176948
0.184773
0.193574
0.203061
0.213253
0.224601
0.23783
0.255221
0.281066
0.312744
0.340839
0.358772
0.369711
0.378222
0.386476
0.387669
0.371265
0.351305
0.332012
0.31715
0.305382
0.295298
0.286553
0.28004
0.275611
0.272841
0.271359
0.270502
0.269783
0.268791
0.267761
0.266882
0.265858
0.264669
0.263163
0.261598
0.260396
0.259137
0.257356
0.254802
0.251295
0.246843
0.242035
0.237511
0.233412
0.229484
0.225464
0.221248
0.216721
0.211735
0.206224
0.200287
0.194167
0.188142
0.18247
0.177229
0.172402
0.16787
0.163671
0.160188
0.157748
0.156165
0.155274
0.15587
0.157337
0.159032
0.161038
0.163086
0.166494
0.168279
0.167285
0.159723
0.140639
0.122629
0.104117
0.0843704
0.0650536
0.0518841
0.0465298
0.0443702
0.0435123
0.0434124
0.0436414
0.0440642
0.856071
0.842271
0.823388
0.806974
0.785138
0.761948
0.732784
0.705849
0.675571
0.645457
0.61573
0.586418
0.555799
0.529533
0.502818
0.481465
0.458237
0.439825
0.421658
0.404421
0.391069
0.378208
0.368785
0.36109
0.355268
0.351345
0.349294
0.348661
0.349715
0.352646
0.35658
0.362587
0.374022
0.386939
0.399673
0.41274
0.426889
0.443693
0.460471
0.477484
0.495669
0.51449
0.53268
0.551082
0.569985
0.589204
0.608962
0.631893
0.665102
0.703812
0.725798
0.734696
0.750343
0.770433
0.797682
0.835381
0.864168
0.882169
0.873639
0.847585
0.820238
0.793572
0.763494
0.736613
0.70657
0.676742
0.650614
0.628226
0.609318
0.593368
0.579822
0.569065
0.560229
0.552312
0.544476
0.537211
0.530566
0.524169
0.517128
0.508861
0.499556
0.489977
0.479919
0.469025
0.457055
0.444011
0.43014
0.41585
0.401536
0.387481
0.373851
0.36077
0.348657
0.338049
0.328928
0.321559
0.316635
0.313703
0.311867
0.310977
0.310496
0.309704
0.308401
0.306632
0.303815
0.299475
0.291777
0.278989
0.261069
0.240112
0.219219
0.19878
0.181507
0.168267
0.157582
0.148437
0.14095
0.132816
0.119129
0.0890062
0.0703155
0.0626916
0.060055
0.059713
0.0602425
0.954503
0.944598
0.927175
0.913409
0.892796
0.871614
0.842897
0.8171
0.786479
0.756748
0.724555
0.694091
0.664172
0.63682
0.608539
0.584152
0.560296
0.540238
0.522962
0.506534
0.493854
0.482253
0.472583
0.464947
0.458965
0.456288
0.455294
0.456383
0.458778
0.462702
0.47034
0.479656
0.488228
0.500272
0.510585
0.520931
0.530359
0.540338
0.550212
0.560082
0.569612
0.579635
0.589399
0.599042
0.609551
0.620748
0.63347
0.653701
0.679662
0.68946
0.682486
0.676492
0.672427
0.680283
0.706016
0.753214
0.801945
0.846617
0.897741
0.92792
0.93577
0.931698
0.920293
0.906697
0.886082
0.861871
0.839623
0.816021
0.792936
0.770301
0.749874
0.731188
0.713488
0.696504
0.681334
0.668845
0.654758
0.638062
0.621357
0.605521
0.591667
0.580311
0.570751
0.560148
0.547138
0.531952
0.515399
0.498316
0.481609
0.466218
0.452929
0.441797
0.432832
0.425774
0.420281
0.415457
0.409754
0.403251
0.396812
0.390101
0.382598
0.372514
0.358621
0.340732
0.319595
0.295828
0.271483
0.249388
0.230658
0.214536
0.201286
0.190076
0.180483
0.171671
0.16509
0.160004
0.157647
0.157075
0.155704
0.150205
0.136637
0.102683
0.083086
0.0760071
0.0742898
0.969526
0.957261
0.935113
0.919922
0.896699
0.874766
0.844287
0.818315
0.788488
0.761512
0.735317
0.709737
0.683122
0.659461
0.634566
0.614444
0.595926
0.57751
0.565769
0.551251
0.540397
0.53126
0.52273
0.515557
0.50772
0.50009
0.492527
0.485184
0.484755
0.483077
0.47987
0.478236
0.477407
0.480545
0.48263
0.486262
0.490551
0.494082
0.498279
0.503412
0.507923
0.513865
0.5198
0.526176
0.532947
0.540883
0.551614
0.570701
0.591388
0.602259
0.599622
0.595035
0.590663
0.587703
0.590922
0.604923
0.629644