/*--------------------------------*- C++ -*----------------------------------*\
| =========                 |                                                 |
| \\      /  F ield         | OpenFOAM: The Open Source CFD Toolbox           |
|  \\    /   O peration     | Version:  2112                                  |
|   \\  /    A nd           | Website:  www.openfoam.com                      |
|    \\/     M anipulation  |                                                 |
\*---------------------------------------------------------------------------*/
FoamFile
{
    version     2.0;
    format      ascii;
    arch        "LSB;label=32;scalar=64";
    class       volVectorField;
    location    "0.01069";
    object      U;
}
// * * * * * * * * * * * * * * * * * * * * * * * * * * * * * * * * * * * * * //

dimensions      [0 1 -1 0 0 0 0];

internalField   nonuniform List<vector> 
13875
(
(2204.17 109.693 1.81271e-18)
(2142.47 5.6254 -9.38736e-19)
(2170.24 -2.16751 -9.41112e-19)
(2167.88 -0.768876 0)
(2170.33 0.0531516 0)
(2169.42 -1.48391 9.36796e-19)
(2169.45 -1.46908 -9.37105e-19)
(2170.1 -0.0207811 -4.68345e-19)
(2169.04 0.618481 4.68248e-19)
(2168.98 0.27084 0)
(2169.46 0.100732 -3.88284e-22)
(2169.48 0.882366 -3.8808e-22)
(2169.64 0.913239 0)
(2169.4 -0.0314849 -4.68218e-19)
(2169.45 -0.919677 4.68586e-19)
(2169.6 -1.28909 0)
(2169.87 -0.270675 9.37056e-19)
(2169.23 0.345791 -9.378e-19)
(2169.14 0.948893 3.87943e-22)
(2169.81 1.18931 -3.85755e-22)
(2170.45 -0.162429 -9.36293e-19)
(2167.84 0.299778 9.37173e-19)
(2171.09 2.5087 -1.87805e-18)
(2143.63 -8.60177 1.9164e-18)
(2210.02 -106.629 1.7649e-18)
(2253.39 91.9336 -1.63245e-18)
(2228.46 -1.16101 1.88335e-18)
(2247.4 0.662144 8.71806e-19)
(2245.47 0.955836 -8.67181e-19)
(2248.45 -0.485167 4.16903e-22)
(2247.66 2.21763 5.20228e-22)
(2245.83 1.80746 4.15736e-22)
(2245.57 0.278664 -4.35893e-19)
(2244.89 -0.540039 4.3597e-19)
(2244.84 -0.540469 2.17612e-19)
(2245.28 -0.225987 -1.63094e-19)
(2245.42 -1.13911 -5.31638e-20)
(2247.75 -1.14409 0)
(2247.86 0.101081 -4.3497e-19)
(2247.56 1.04431 4.33451e-19)
(2245.59 1.4301 4.3603e-19)
(2245.51 0.50418 -4.35308e-19)
(2245.21 -0.242506 5.18485e-22)
(2245.69 -1.57087 -5.18687e-22)
(2247.84 -1.96982 5.19788e-22)
(2248.4 0.748466 -8.7147e-19)
(2245.58 -0.691552 2.59982e-18)
(2247.28 -1.57195 -1.74252e-18)
(2228.82 3.70591 5.43001e-22)
(2256.31 -97.3104 -1.71459e-18)
(2252.4 78.1221 0)
(2236.33 -18.2436 0)
(2249.49 4.43176 0)
(2250.59 -1.88035 0)
(2253.54 -2.63365 -1.63877e-18)
(2253.37 1.46595 1.64234e-18)
(2253.46 1.96467 1.7194e-18)
(2254.12 0.667222 -2.58117e-18)
(2253.22 0.759381 8.60627e-19)
(2252.63 0.17914 4.30643e-22)
(2253.22 -0.343484 -4.30773e-19)
(2253.08 -2.46764 4.30549e-19)
(2254.12 -2.54588 0)
(2253.99 0.0371797 0)
(2254.04 2.3723 4.08173e-22)
(2253.18 2.00816 0)
(2254.06 0.217159 8.38094e-22)
(2253.13 -0.2949 4.30564e-19)
(2253.09 -2.51214 -4.3067e-19)
(2253.54 -1.75758 0)
(2253.72 2.35261 0)
(2250.92 1.30999 0)
(2250.71 -4.77919 0)
(2237.93 13.8383 0)
(2257.2 -74.4797 0)
(2247.86 51.3581 0)
(2235.04 -28.6687 1.81427e-18)
(2249.28 7.21862 -3.41701e-18)
(2251.56 -4.75862 3.46602e-18)
(2253.3 -3.18205 -1.63532e-18)
(2253.25 1.15723 0)
(2253.88 1.28244 -8.41611e-22)
(2254.27 0.38659 0)
(2253.74 0.79837 0)
(2253.8 -0.184692 0)
(2254.4 -0.447068 0)
(2254.12 -2.30807 -8.44066e-22)
(2254.09 -2.49399 -5.06858e-20)
(2253.97 0.00222612 5.07107e-20)
(2254.01 2.28403 0)
(2254.26 1.80687 0)
(2254.74 0.251551 7.99402e-22)
(2254.18 0.390276 -8.57167e-19)
(2253.82 -1.74205 8.56208e-19)
(2253.42 -1.4913 -1.62397e-18)
(2253.56 2.74512 1.62354e-18)
(2251.98 4.31097 1.74092e-18)
(2249.75 -8.84945 -1.72066e-18)
(2235.81 31.2849 0)
(2251.98 -58.2502 0)
(2244.89 39.2822 1.74898e-18)
(2235.45 -47.8615 0)
(2248.75 10.5057 0)
(2250.34 -7.7118 0)
(2253.52 -4.43286 0)
(2253.34 0.497577 1.68067e-21)
(2253.65 0.901482 1.68432e-21)
(2254.17 0.347543 4.08709e-19)
(2253.65 0.808976 -4.05505e-19)
(2253.76 -0.317711 2.00421e-19)
(2254.41 -0.517398 -2.15563e-19)
(2254.2 -1.90474 0)
(2254.1 -2.35775 0)
(2253.89 -0.0135952 -1.65612e-21)
(2254.06 2.08202 0)
(2254.3 1.35361 -1.68504e-21)
(2254.71 0.259004 8.07179e-19)
(2254.02 0.725832 -8.50663e-19)
(2253.5 -1.21919 1.7157e-18)
(2253.54 -0.837816 -1.6911e-18)
(2253.61 3.75645 1.65335e-21)
(2250.68 6.44245 0)
(2250.03 -11.5277 0)
(2237.31 42.7643 0)
(2250.55 -35.5096 0)
(2241.5 6.7554 0)
(2231.55 -63.6049 9.12434e-19)
(2247.22 12.3035 -8.47552e-19)
(2250.89 -11.2126 0)
(2252.52 -5.18675 8.60616e-19)
(2252.85 -0.267137 -4.37475e-19)
(2253.7 0.152665 -3.02049e-21)
(2254.01 0.16136 -2.13383e-19)
(2253.57 0.709546 -4.22819e-19)
(2253.77 -0.73607 1.60819e-19)
(2254.38 -0.679345 1.6704e-21)
(2254.1 -1.66891 2.68235e-19)
(2253.98 -2.22568 -2.15341e-19)
(2253.76 -0.111109 3.35979e-21)
(2253.89 1.88593 -4.27565e-19)
(2254.22 1.15269 4.33263e-19)
(2254.65 0.311772 1.63632e-21)
(2254.13 1.33632 -1.68353e-21)
(2253.74 -0.329813 -1.67981e-21)
(2252.96 -0.364797 -8.59079e-19)
(2252.77 4.12968 8.46111e-19)
(2251.44 10.6687 0)
(2247.37 -15.174 0)
(2232.45 65.2552 -1.93307e-18)
(2245.99 -18.9064 -1.26354e-19)
(2254.03 2.8997 -4.9525e-20)
(2227.5 -79.3463 6.02418e-20)
(2243.07 12.2638 0)
(2248.54 -15.6882 -2.69153e-23)
(2252.18 -7.11665 -2.62476e-23)
(2252.56 -1.51477 0)
(2253.19 -0.28774 0)
(2253.6 0.173372 -8.48408e-19)
(2253.29 0.581374 8.38703e-19)
(2253.62 -1.10486 0)
(2254.24 -0.699358 1.68151e-18)
(2254.04 -1.19288 4.2809e-21)
(2253.87 -1.86973 -1.72187e-18)
(2253.62 -0.117181 -1.71185e-21)
(2253.87 1.44174 0)
(2254.19 0.685346 3.44596e-18)
(2254.43 0.357472 1.74257e-21)
(2253.76 1.71928 -6.90571e-18)
(2253.09 0.32358 3.45192e-18)
(2252.83 0.956573 2.64099e-23)
(2252.28 6.09962 0)
(2248.52 12.9568 3.52737e-18)
(2244.19 -12.51 -3.30786e-18)
(2228.92 72.8878 3.81543e-18)
(2247.09 2.88494 -3.18347e-18)
(2218.37 -22.8414 -3.16882e-19)
(2214.7 -87.4763 -7.4963e-18)
(2235.68 3.52342 8.70677e-22)
(2246.11 -22.5048 2.6115e-23)
(2248.81 -9.29797 -8.09799e-22)
(2251.19 -3.12052 0)
(2252.65 -1.30921 -3.43492e-18)
(2253.2 -0.294557 3.40752e-18)
(2253.11 0.0463721 0)
(2253.54 -1.70335 -8.43215e-22)
(2253.96 -0.912392 -8.24266e-22)
(2253.75 -0.996263 0)
(2253.55 -1.67181 0)
(2253.32 -0.131484 -1.65999e-21)
(2253.48 1.25634 -8.38937e-22)
(2253.93 0.529185 2.60065e-23)
(2254.14 0.66508 -8.56044e-22)
(2253.54 2.45842 -2.62932e-23)
(2252.91 1.77989 -1.73301e-18)
(2251.4 2.40125 -1.62375e-20)
(2249.25 8.05138 1.68873e-18)
(2246.39 19.3931 8.85503e-22)
(2236.71 -4.78199 3.45902e-18)
(2216.55 81.5278 -3.53833e-18)
(2222.23 18.1626 2.5042e-23)
(2113.27 -37.8595 9.42628e-19)
(2168.62 -98.6088 0)
(2217.12 -20.1739 -8.31547e-22)
(2234.93 -32.3659 -8.65608e-19)
(2245.78 -17.7714 1.71334e-18)
(2248.71 -7.06249 -1.72942e-18)
(2250.96 -3.02693 9.09328e-21)
(2251.95 -0.799759 8.49714e-19)
(2252.28 -0.23369 0)
(2252.98 -2.02132 -8.52066e-19)
(2253.31 -0.847341 8.50435e-19)
(2253.24 -0.426934 0)
(2252.98 -1.19815 0)
(2252.72 -0.271214 2.10383e-21)
(2252.96 0.544575 8.34457e-22)
(2253.3 0.0401476 8.42266e-19)
(2253.33 0.871929 -8.44311e-19)
(2252.55 3.27109 0)
(2251.27 3.41554 8.60855e-19)
(2249.48 6.05325 -1.7287e-18)
(2246.23 15.1574 8.44921e-19)
(2236.18 28.8851 -8.40861e-22)
(2219.02 16.6828 0)
(2171.33 93.972 0)
(2117.07 35.3385 0)
(1873.55 -142.222 -6.57076e-17)
(2125.72 -161.367 8.42447e-17)
(2198.86 -54.8235 0)
(2229.24 -54.337 -2.99372e-17)
(2239.81 -22.3972 3.09753e-17)
(2246.49 -11.4161 0)
(2249.19 -5.78627 -2.94696e-20)
(2250.67 -2.49779 -1.44937e-17)
(2251.26 -1.90398 1.44562e-17)
(2251.77 -2.91327 -2.91371e-20)
(2252.05 -1.20576 0)
(2252.08 -0.395844 -3.70421e-18)
(2251.8 -0.866052 5.58983e-18)
(2251.53 -0.307452 -1.90151e-18)
(2251.71 0.416269 -2.928e-20)
(2252.02 0.369918 0)
(2251.91 1.742 0)
(2250.95 5.02525 -2.94697e-17)
(2249.44 7.59895 2.90826e-17)
(2246.68 10.2819 -3.05982e-17)
(2240.46 20.4824 2.91753e-17)
(2229.39 53.0012 3.22064e-17)
(2199.84 52.5088 -2.92248e-17)
(2128.68 161.865 -8.3385e-17)
(1884.69 138.343 -1.25712e-17)
(1652.97 -215.532 -9.0856e-17)
(2011.32 -307.552 1.37617e-16)
(2159.49 -104.64 0)
(2210.69 -65.1348 6.83832e-17)
(2232.53 -29.5504 -7.12387e-17)
(2241.49 -14.2559 -3.38445e-17)
(2244.85 -6.04627 3.36118e-17)
(2247.47 -2.97116 -3.31402e-17)
(2248.6 -2.20876 3.31482e-17)
(2249.29 -2.45154 3.21481e-20)
(2249.68 -0.569938 0)
(2249.77 0.236302 -2.11549e-18)
(2249.5 -0.278121 2.16865e-18)
(2249.19 -0.458599 3.29628e-20)
(2249.29 -0.440804 3.28587e-20)
(2249.39 -0.40914 3.30757e-20)
(2249.14 0.858584 0)
(2248.03 4.52583 0)
(2245.09 7.6327 -6.7708e-17)
(2242.27 15.4547 6.81879e-17)
(2233.7 26.9753 -7.13506e-17)
(2211.53 59.0344 1.47083e-16)
(2166.07 99.4651 -6.9941e-17)
(2016.74 298.629 -3.86839e-20)
(1697.92 206.017 8.7527e-20)
(1281.4 -592.648 -1.08976e-16)
(1741.85 -591.539 1.18827e-16)
(2046.19 -180.861 2.16992e-16)
(2173.63 -106.652 -9.37306e-17)
(2207.9 -35.8624 0)
(2229.57 -19.2122 7.39927e-17)
(2238.17 -12.0789 -7.49931e-17)
(2241.36 -7.1741 0)
(2243.02 -5.25875 3.5488e-20)
(2244.07 -4.00068 0)
(2244.63 -1.3179 0)
(2244.76 -0.00879445 0)
(2244.57 0.101752 4.67088e-18)
(2244.25 -0.219408 -4.63529e-18)
(2244.22 -0.00209327 -3.71959e-20)
(2243.97 0.812438 -3.55362e-20)
(2243.37 2.80625 0)
(2241.75 7.19284 0)
(2238.06 13.9322 0)
(2228.49 19.1012 -7.89382e-17)
(2211.52 37.302 1.56926e-16)
(2176.41 102.699 -7.23205e-17)
(2052.65 161.803 -1.33649e-16)
(1750.16 592.174 1.00495e-16)
(1286.04 543.656 -5.99378e-20)
(1301.77 -610.902 1.60774e-16)
(1112.31 -1085.64 0)
(1701.69 -453.052 0)
(1929.33 -129.941 -1.07863e-16)
(2150.89 -84.1224 1.0905e-16)
(2201.49 -42.1173 0)
(2215.67 -13.4121 1.12628e-20)
(2224.21 -6.14495 4.04869e-17)
(2228.36 -2.95182 -4.08565e-17)
(2231.03 -1.52123 0)
(2232.15 0.341654 -1.00389e-17)
(2232.46 0.875257 1.01285e-17)
(2232.45 0.768947 -5.0856e-18)
(2232.12 -0.0742164 5.08872e-18)
(2231.77 -0.718633 3.85926e-20)
(2230.64 -1.10948 -4.05806e-17)
(2228.23 -0.143585 8.05029e-17)
(2223.73 4.27252 1.04378e-18)
(2214.19 13.4899 -4.04014e-17)
(2197.95 45.0941 -9.0859e-17)
(2134.01 72.2053 8.43671e-17)
(1912.48 109.736 8.25407e-20)
(1758.48 455.909 2.60565e-20)
(1103.68 1071.07 1.67463e-16)
(1319.42 612.47 7.17781e-18)
(1358.87 -629.443 0)
(1142.2 -1058.31 0)
(1291.61 -752.051 0)
(1201.85 -809.418 0)
(1955.06 -255.595 0)
(2053.35 -62.3458 1.01501e-16)
(2157.06 -47.7518 -1.04033e-16)
(2175.67 -30.513 1.15228e-19)
(2185.42 -19.8599 -1.03114e-20)
(2192.39 -10.6818 2.25876e-17)
(2194.62 -4.63265 -2.28541e-17)
(2195.41 -1.14852 -2.25664e-19)
(2195.54 0.548466 -7.07389e-19)
(2195.18 1.39671 8.0232e-19)
(2194.41 3.44598 -2.26566e-17)
(2191.98 8.22949 2.24419e-17)
(2185.3 17.4535 9.91506e-20)
(2174.65 31.6336 0)
(2149.56 51.8017 0)
(2017.29 86.4109 0)
(1918.56 324.191 -2.11412e-16)
(1167.81 812.541 -6.18418e-17)
(1296.86 702.3 1.64029e-16)
(1135.49 1023.02 2.05604e-20)
(1368.84 619.042 2.0863e-20)
(1436.91 -620.983 0)
(1273.33 -925.539 3.94556e-20)
(1321.08 -784.403 0)
(1238.59 -857.782 -1.67165e-16)
(1336.68 -806.152 3.17268e-16)
(1648.76 -550.739 -2.05093e-16)
(1937.76 -117.048 0)
(1960 -13.8364 -1.02564e-19)
(2008.54 14.4063 0)
(2045.61 8.79072 0)
(2056.97 6.2212 -1.4083e-17)
(2060.78 2.83171 1.44036e-17)
(2061.7 1.87551 1.4226e-17)
(2061.2 1.10114 -1.42903e-17)
(2058.87 -0.531203 0)
(2050.13 -4.42511 -5.86263e-17)
(2017.76 -10.132 5.91596e-17)
(1962.66 17.756 7.11743e-17)
(1937.47 143.324 -5.96635e-17)
(1595.77 587.708 0)
(1308.61 794.874 0)
(1203.03 850.717 -1.72024e-19)
(1331.29 779.169 -1.70904e-16)
(1266.95 918.057 3.6671e-16)
(1425.2 619.063 -1.69431e-16)
(1519.48 -630.947 -1.69273e-16)
(1387.51 -855.067 1.87089e-16)
(1385.03 -759.209 0)
(1283.12 -819.51 -1.89245e-16)
(1309.06 -785.624 -6.20984e-18)
(1307.79 -745.411 2.77137e-16)
(1256.88 -593.315 -2.00151e-16)
(1321.86 -521.629 1.18052e-16)
(1543.41 -270.774 0)
(1564.45 -120.452 0)
(1548.88 -58.9556 -4.08416e-20)
(1545.44 -21.3839 2.73218e-19)
(1542.38 -3.42651 0)
(1544.14 11.9592 0)
(1547.83 42.0307 5.79892e-17)
(1558.17 109.277 -5.51128e-17)
(1573.11 230.612 -1.10566e-16)
(1333.83 526.206 2.24418e-16)
(1246.8 597.606 1.81995e-17)
(1286.36 746.36 -9.04123e-17)
(1301.21 779.387 0)
(1252.8 823.473 0)
(1382.4 761.06 -1.73775e-16)
(1350.96 888.032 2.02883e-16)
(1502.22 641.001 -4.59583e-20)
(1660.4 -609.78 1.57303e-16)
(1562.55 -748.742 -9.70359e-20)
(1528.74 -687.46 9.48315e-17)
(1466.14 -728.249 -8.50338e-17)
(1399.92 -683.872 -4.46245e-20)
(1340.37 -599.588 8.75889e-20)
(1190.22 -447.775 1.15637e-16)
(872.059 -241.557 -1.80278e-16)
(696.287 -124.881 6.39281e-17)
(535.235 -56.7875 0)
(409.481 -20.0723 -3.37375e-17)
(369.036 -6.61191 3.3669e-17)
(352.125 1.02928 0)
(359.261 9.31634 6.32513e-20)
(389.376 17.0182 -3.35962e-17)
(497.79 49.1564 3.38287e-17)
(737.01 121.61 0)
(873.875 252.788 -1.16448e-16)
(1178.04 439.608 1.16668e-16)
(1327.78 595.407 8.91627e-17)
(1389.18 685.181 -1.86192e-16)
(1434.04 744.534 9.96426e-17)
(1520.12 708.913 0)
(1547.52 776.221 1.68793e-16)
(1650.26 625.01 -3.29908e-18)
(1815.42 -551.888 -3.30193e-18)
(1746.21 -604.112 8.00238e-17)
(1689.32 -552.195 -3.63239e-17)
(1542.27 -426.498 -5.72529e-17)
(1421.58 -359.52 7.33319e-17)
(1384.52 -279.482 -5.13006e-17)
(1291.2 -254.399 5.2937e-17)
(950.291 -199.966 -5.85443e-17)
(734.796 -107.067 -4.95765e-19)
(599.056 -58.5806 3.30024e-17)
(502.683 -29.989 1.6509e-17)
(470.114 -15.1856 -1.54188e-19)
(457.287 1.88009 -1.66965e-17)
(464.649 21.9563 -6.04656e-20)
(496.73 31.0153 -7.5158e-20)
(589.953 54.2318 -2.06861e-18)
(793.295 102.308 2.18211e-20)
(971.597 193.813 5.37777e-18)
(1282.64 228.062 -3.54071e-18)
(1365.26 305.223 0)
(1408.93 398.43 1.09197e-17)
(1552.36 479.067 -3.45128e-17)
(1689.42 591.084 4.137e-17)
(1741.54 634.752 -5.64913e-17)
(1810.21 569.724 5.30849e-17)
(1999.16 -510.038 -8.71334e-20)
(1954.94 -328.859 -1.04624e-19)
(1882.49 -321.008 1.21499e-19)
(1791.07 -219.314 -5.47891e-21)
(1534.5 -71.1275 -1.82868e-19)
(1416.15 -26.6813 -2.00773e-19)
(1375.42 -72.4154 -7.1522e-21)
(1199.49 -93.1264 0)
(966.783 -105.104 0)
(819.705 -122.342 6.56596e-17)
(736.302 -102.82 -6.71838e-17)
(696.629 -51.0692 -8.84864e-21)
(680.829 1.80996 8.83236e-21)
(686.693 51.8345 -8.64303e-18)
(719.474 114.371 8.37842e-18)
(807.485 147.239 0)
(985.626 127.934 0)
(1175.5 108.994 -5.64973e-17)
(1341.93 72.7359 5.60894e-17)
(1369.01 17.1843 -1.94064e-19)
(1537.55 76.1738 0)
(1801.52 229.295 0)
(1887.05 323.857 -1.23957e-19)
(1953.17 331.306 -1.07422e-19)
(2000.57 523.688 1.23047e-16)
(1494.7 -179.571 -1.87864e-16)
(1740.49 -124.848 -2.3906e-16)
(1847.69 114.163 1.22332e-16)
(1797.68 142.565 0)
(1648.53 185.669 1.98869e-19)
(1516.96 145.907 1.08138e-16)
(1502.97 34.7189 -2.08789e-16)
(1407.84 -20.9313 1.06181e-16)
(1224.4 -57.3356 -1.20971e-16)
(1061.54 -84.1943 1.25261e-16)
(935.952 -74.4798 3.29937e-17)
(862.282 -29.1153 -4.11124e-17)
(839.553 6.00809 -8.32122e-18)
(856.002 40.5114 1.68366e-17)
(929.993 91.6335 0)
(1069.61 109.416 0)
(1246.43 77.7464 1.16563e-16)
(1391.98 37.9286 -2.20865e-16)
(1486.62 -37.7322 1.09327e-16)
(1498.78 -155.191 2.27316e-19)
(1662.71 -195.732 1.53195e-16)
(1789.98 -154.972 -9.77162e-17)
(1830.41 -136.207 -4.90469e-16)
(1737.79 134.61 6.22038e-16)
(1484.59 189.049 -2.4942e-16)
(-46.3645 -74.1112 1.11863e-19)
(484.22 -109.703 -2.55673e-16)
(1395.67 298.338 1.74247e-16)
(1671.6 495.677 0)
(1672.47 417.605 0)
(1610.51 277.281 0)
(1601.27 138.415 0)
(1531.57 65.1199 0)
(1374.56 18.367 -5.16048e-17)
(1210 -21.1356 1.08398e-16)
(1077.39 -26.1826 -8.46752e-17)
(1000.83 -6.84113 3.21711e-17)
(977.565 8.74057 -3.62768e-18)
(1000.64 21.1712 1.58189e-20)
(1084.69 44.8249 -5.584e-17)
(1234.97 41.1221 5.54727e-17)
(1403.91 -1.1863 0)
(1527.65 -53.0989 0)
(1599.81 -139.446 -1.73334e-16)
(1603.89 -294.247 1.85801e-16)
(1677.47 -423.192 -1.61972e-19)
(1651.12 -502.287 7.3036e-20)
(1354.4 -269.875 -9.50217e-20)
(410.804 153.796 -1.15889e-19)
(-124.484 94.2624 0)
(-266.291 -38.8094 -2.2418e-16)
(380.257 263.003 2.28947e-16)
(1250.15 634.126 -1.72111e-19)
(1624.95 740.468 1.63763e-16)
(1724.27 574.004 -1.21561e-16)
(1686.87 390.174 0)
(1673.58 234.215 -8.19651e-17)
(1613.18 157.526 7.45951e-17)
(1476.36 95.0531 -4.45207e-17)
(1326.04 38.3449 9.33678e-17)
(1195.41 10.5536 -4.81825e-17)
(1119.03 10.4218 1.8336e-19)
(1099.9 7.21121 0)
(1124.93 3.09001 2.49317e-17)
(1214.1 1.82617 2.31217e-17)
(1359.8 -28.7938 -4.73352e-17)
(1506.75 -90.4999 -8.1349e-17)
(1609.86 -150.173 8.39388e-17)
(1678.34 -238.293 -7.21717e-17)
(1683.49 -413.902 7.96548e-17)
(1727.25 -591.61 7.97995e-20)
(1587.96 -765.678 -7.60455e-20)
(1190.78 -622.603 0)
(317.245 -268.813 1.12953e-19)
(-268.61 20.7393 0)
(238.139 220.129 1.91529e-16)
(839.793 701.94 -1.88757e-16)
(1395.21 861.403 6.18878e-20)
(1670.01 866.013 0)
(1775.31 673.753 0)
(1736.81 508.306 -7.32108e-21)
(1718.62 352.673 0)
(1668.84 249.613 7.39643e-20)
(1554.31 167.888 0)
(1417.63 96.2197 4.15847e-17)
(1300 51.398 -6.39698e-17)
(1229.4 24.4214 3.26231e-17)
(1208.14 6.23338 -1.10137e-17)
(1234.94 -15.0076 0)
(1316.23 -41.4885 0)
(1445.89 -90.3558 3.88319e-17)
(1576.65 -161.316 -1.09136e-16)
(1662.9 -247.308 7.30276e-17)
(1732.08 -345.394 -6.1113e-17)
(1737.31 -513.747 6.98067e-17)
(1784.41 -678.923 0)
(1662.32 -886.052 0)
(1387.05 -880.541 0)
(870.83 -730.896 -1.17215e-20)
(241.976 -202.402 -2.01769e-16)
(310.926 77.7738 -3.57889e-20)
(1079.42 720.891 1.56026e-16)
(1528.66 927.508 -1.20141e-16)
(1734.76 906.904 0)
(1805.62 734.518 0)
(1761.56 594.887 7.59591e-21)
(1755.82 441.889 6.45476e-17)
(1713.51 327.986 -5.69987e-17)
(1613.96 226.391 3.03087e-20)
(1495.27 140.399 3.29363e-20)
(1388.46 76.9942 3.48675e-20)
(1322.87 38.312 -1.03578e-20)
(1305.04 4.14936 -1.03926e-20)
(1328.16 -30.5912 1.93089e-17)
(1404.28 -71.4501 -1.93334e-17)
(1522.31 -137.029 4.21774e-20)
(1636.66 -222.543 3.88236e-20)
(1707.04 -328.984 0)
(1766.73 -433.984 -5.42172e-17)
(1769.44 -590.722 6.2282e-17)
(1818.5 -739.029 0)
(1734.95 -919.186 -9.92514e-17)
(1524.11 -928.855 1.22305e-16)
(1067.28 -712.115 9.05492e-21)
(321.018 -54.0551 -1.88307e-16)
(483.102 113.989 4.17153e-20)
(1240.39 743.789 0)
(1627.97 925.801 0)
(1779.25 914.552 -4.76001e-17)
(1819.25 776.917 4.59573e-17)
(1779.97 652.534 0)
(1787.73 507.83 5.87581e-17)
(1750.54 388.535 -5.2476e-17)
(1664.08 274.522 3.17891e-17)
(1556.89 179.408 -3.21297e-17)
(1465.01 104.966 1.76929e-17)
(1408.23 47.8018 -1.77993e-17)
(1390.35 2.20862 0)
(1414.85 -46.1781 -1.7622e-17)
(1481.78 -105.264 1.76835e-17)
(1583.39 -184.224 -3.47278e-20)
(1685.74 -273.552 -3.20554e-20)
(1744.77 -397.229 5.16695e-20)
(1794.16 -507.701 4.9769e-17)
(1784.58 -656.53 -5.72534e-17)
(1832.36 -781.193 -4.56552e-20)
(1776.86 -930.062 -4.45956e-20)
(1622.37 -922.163 0)
(1210.23 -728.701 -7.23955e-20)
(457.201 -95.9902 4.22182e-20)
(528.16 138.512 1.59634e-22)
(1320.55 692.544 0)
(1694.11 872.811 9.30688e-23)
(1780.21 909.345 4.04258e-20)
(1823.32 803.583 -8.57424e-23)
(1794.78 699.71 -5.19525e-17)
(1813.92 560.143 4.60428e-17)
(1784.27 439.346 0)
(1708.83 315.526 -5.90573e-20)
(1618.24 213.301 -1.07851e-22)
(1533.93 124.462 -1.13806e-22)
(1481.99 59.2775 6.89692e-20)
(1467.84 0.902277 0)
(1486.62 -57.6081 0)
(1547.38 -124.71 -1.13058e-22)
(1640.58 -216.33 -1.06702e-22)
(1730.09 -315.088 -2.62922e-17)
(1777.56 -445.408 7.52139e-17)
(1817.39 -557.551 -5.32617e-17)
(1798.84 -699.367 0)
(1838.98 -799.857 -4.40334e-17)
(1782.28 -915.468 4.41419e-17)
(1697.25 -868.926 9.29299e-23)
(1315.36 -668.799 6.25223e-20)
(519.19 -132.124 1.60407e-22)
(662.145 213.446 3.1437e-18)
(1448.6 675.952 1.24332e-17)
(1742.88 849.121 9.74329e-17)
(1791.12 895.912 -4.11845e-17)
(1837.03 804.763 4.257e-17)
(1813.09 716.155 -4.76713e-17)
(1841.11 587.745 4.29037e-17)
(1811.36 472.66 -2.51324e-17)
(1745.48 345.17 2.46609e-17)
(1664.22 240.787 1.14841e-22)
(1594.88 146.468 1.20606e-22)
(1551.19 66.3338 -1.2308e-22)
(1535.99 0.964668 7.44039e-18)
(1555.7 -66.8249 7.24742e-18)
(1607.2 -148.547 -1.4846e-17)
(1684.64 -247.616 1.13878e-22)
(1766.27 -341.648 4.89052e-17)
(1807.27 -477.89 -9.50504e-17)
(1844.98 -583.848 4.8923e-17)
(1812.77 -720.767 0)
(1848.56 -802.224 -8.33964e-23)
(1793.86 -899.796 7.90938e-23)
(1738.97 -850.051 -8.43944e-23)
(1436.2 -670.373 -1.21917e-16)
(652.516 -205.999 1.53006e-16)
(718.128 221.157 1.40596e-19)
(1503.35 635.832 0)
(1762.2 801.852 0)
(1797.05 866.534 3.9607e-20)
(1844.82 792.04 8.06033e-20)
(1832 725.735 0)
(1866.36 605.977 4.49098e-17)
(1838.04 493.903 -4.22604e-17)
(1779.04 363.479 4.43764e-20)
(1711.67 257.738 -4.75595e-20)
(1648.4 153.474 -1.37366e-17)
(1609.28 71.5772 1.37649e-17)
(1598.75 -3.04401 3.57102e-18)
(1613.68 -78.5331 -3.47559e-18)
(1660.63 -162.772 1.32427e-17)
(1731.65 -271.864 -3.78235e-17)
(1801.66 -372.554 2.46419e-17)
(1832.45 -508.656 -4.6364e-20)
(1865.01 -611.519 3.94587e-20)
(1830.26 -733.326 -4.06581e-17)
(1852.16 -796.108 8.12641e-19)
(1805.32 -864.385 -2.09451e-18)
(1765.95 -788.95 4.12807e-17)
(1472.98 -603.514 5.69426e-20)
(650.814 -215.098 7.01822e-20)
(715.976 203.904 1.35345e-16)
(1537.66 580.809 -1.09566e-16)
(1791.76 761.516 0)
(1816.89 841.289 -3.82125e-17)
(1860.05 781.845 3.16381e-19)
(1852.4 720.363 3.94942e-17)
(1890.26 613.181 4.16588e-17)
(1859.73 512.158 -3.98962e-17)
(1810.05 383.806 -4.6846e-20)
(1749.43 279.203 -2.45733e-17)
(1699.38 173.496 1.19212e-17)
(1666.32 80.2037 1.26122e-17)
(1653.53 1.23951 -5.38967e-20)
(1668.98 -79.9362 0)
(1707.34 -174.438 0)
(1763.69 -286.02 0)
(1829.46 -377.947 4.64314e-20)
(1857.14 -515.07 9.65118e-21)
(1891.15 -607.721 -4.97853e-20)
(1850.85 -721.429 0)
(1865.51 -780.223 3.81803e-20)
(1820.34 -839.284 9.40564e-21)
(1795.64 -760.269 -4.88016e-20)
(1553.67 -583.619 -1.06914e-16)
(767.75 -242.057 1.36312e-16)
(764.761 233.072 6.59169e-17)
(1562.16 521.753 -9.69118e-17)
(1808.72 680.536 8.24398e-17)
(1828.39 786.05 -4.11538e-17)
(1871.57 752.127 -3.74016e-17)
(1869.91 707.04 3.76783e-17)
(1910.74 614.716 1.92478e-17)
(1880.72 518.933 -1.89691e-17)
(1836.75 390.002 1.08294e-17)
(1788.41 285.983 -2.23406e-17)
(1742.01 173.725 1.73764e-17)
(1712.54 83.44 -7.40855e-18)
(1704.8 -2.13644 1.48922e-18)
(1715.6 -88.4086 -4.38797e-20)
(1751.38 -179.296 2.28474e-17)
(1803.52 -298.649 -2.28178e-17)
(1859.29 -395.362 3.86971e-20)
(1877.57 -527.717 3.78965e-17)
(1910.16 -614.023 -1.81142e-18)
(1862.67 -711.085 -3.85279e-17)
(1875.61 -756.267 0)
(1835.42 -787.439 4.10917e-17)
(1811.73 -688.884 -3.6766e-17)
(1569.32 -527.466 -1.03615e-16)
(785.02 -255.86 -1.0724e-18)
(899.862 272.47 -6.24434e-17)
(1632.69 483.031 4.83791e-17)
(1836.16 637.59 1.90458e-20)
(1847.67 746.893 -5.38525e-20)
(1892.08 737.301 1.81674e-20)
(1892.4 684.942 3.60661e-17)
(1933.59 595.216 -1.72706e-17)
(1897.85 512.323 -1.83336e-17)
(1862.27 390.237 4.13971e-20)
(1817.53 291.639 -4.41315e-20)
(1782.52 181.769 2.02919e-20)
(1759.1 83.7416 -2.05484e-20)
(1749.38 -3.51146 0)
(1761.84 -92.8499 5.23577e-21)
(1790.15 -191.708 -1.07072e-17)
(1829.99 -308.47 1.07665e-17)
(1883.05 -394.691 -1.92791e-17)
(1898.52 -526.366 9.58519e-19)
(1932.25 -598.739 1.80977e-17)
(1887.44 -689.297 -5.3328e-20)
(1889.49 -741.477 -3.66346e-17)
(1854.54 -744.916 3.48641e-17)
(1839.97 -637.767 0)
(1626.73 -480.661 -4.88129e-17)
(851.519 -271.709 6.24776e-17)
(906.413 265.767 0)
(1648 432.847 -4.27681e-17)
(1841.38 555.465 4.24492e-17)
(1867.4 672.576 1.77374e-20)
(1903.31 698.335 1.71302e-20)
(1911.85 663.097 -3.45209e-17)
(1946.57 591.303 3.41426e-17)
(1914.8 515.068 1.82989e-17)
(1885.3 395.491 7.97438e-19)
(1851.92 297.388 -1.96699e-17)
(1818.54 182.354 -2.14728e-20)
(1796.68 90.0401 2.43097e-20)
(1791.44 -0.909725 0)
(1797.89 -92.4659 4.36858e-20)
(1824.75 -183.588 -2.13848e-20)
(1862.27 -307.602 9.74889e-18)
(1907.09 -396.884 -9.631e-18)
(1913.51 -520.236 -1.82824e-20)
(1946.14 -589.536 -1.91394e-20)
(1904.57 -663.558 1.75711e-20)
(1901.38 -704.883 -3.63408e-17)
(1873.26 -683.12 -6.34428e-18)
(1851.06 -573.612 3.37787e-17)
(1666.24 -444.682 0)
(976.993 -294.611 5.98656e-17)
(1008.93 278.167 -1.14476e-16)
(1686.4 396.674 4.51521e-17)
(1855.83 498.374 3.25907e-17)
(1890.87 625.392 -4.06848e-17)
(1920.58 672.279 0)
(1933.86 643.24 -2.07082e-21)
(1966.52 568.459 0)
(1930.02 498.106 -2.1929e-21)
(1907.54 386.712 -2.32587e-21)
(1874.72 295.966 0)
(1851.01 185.923 0)
(1835.1 87.5892 -2.55807e-21)
(1827.46 -2.43903 0)
(1836.59 -95.1475 0)
(1856.41 -192.978 -9.63781e-18)
(1883.15 -310.058 9.62161e-18)
(1928.2 -387.608 -2.30686e-21)
(1933.36 -509.751 -1.71294e-17)
(1964.87 -572.371 1.63251e-17)
(1929.36 -644.306 0)
(1916.44 -678.679 3.57775e-17)
(1891.88 -636.886 -7.27575e-17)
(1866.54 -517.643 7.21998e-17)
(1701.39 -397.459 4.19776e-18)
(1009.91 -271.214 -5.67784e-17)
(1068.02 272.494 1.35895e-20)
(1705.7 366.329 -1.04824e-20)
(1861 434.603 0)
(1908.76 544.99 0)
(1930.67 616.625 0)
(1952.12 611.477 7.69043e-21)
(1976.5 555.623 0)
(1943 488.824 -7.87635e-21)
(1927.52 381.784 0)
(1904.58 291.854 -8.49435e-21)
(1880.86 176.809 0)
(1864.56 87.2962 -2.36355e-18)
(1861.51 -3.53734 2.3458e-18)
(1865.48 -95.9731 0)
(1885.89 -183.704 9.18963e-18)
(1911.66 -308.032 -1.80255e-17)
(1948.41 -388.46 8.71406e-18)
(1945.69 -497.638 0)
(1977.64 -559.095 1.59233e-17)
(1944.66 -615.893 -1.59393e-17)
(1930.06 -626.921 3.56319e-17)
(1911.27 -560.257 -3.15074e-17)
(1858.58 -454.535 0)
(1705.73 -361.338 0)
(1030.6 -240.4 0)
(1116.51 264.534 -1.31966e-20)
(1727.99 345.816 1.03266e-20)
(1878.66 378.466 0)
(1928.99 471.329 0)
(1948.83 579.676 0)
(1970.94 593.277 -7.63587e-21)
(1997.03 533.234 0)
(1957.83 468.54 8.20154e-21)
(1948.34 369.573 0)
(1923.94 289.642 -8.80185e-18)
(1908.02 182.645 8.84044e-18)
(1896.94 88.0974 -8.37992e-21)
(1890.85 -0.813741 9.26676e-21)
(1897.5 -92.8867 8.36851e-21)
(1911.07 -184.947 0)
(1927.78 -299.268 0)
(1967.98 -367.757 8.47111e-21)
(1963.18 -479.149 -1.62449e-17)
(1996.06 -537.949 1.50991e-17)
(1967.22 -594.25 0)
(1941.43 -588.268 7.84252e-21)
(1929.03 -483.872 0)
(1876.68 -398.32 0)
(1727.03 -342.998 0)
(1105.32 -236.165 0)
(1152.35 242.409 -5.0615e-17)
(1741.54 315.784 4.19498e-17)
(1888.21 322.471 0)
(1937.13 389.497 -1.67413e-20)
(1957.25 517.388 0)
(1981.59 548.908 -1.45328e-17)
(2004.26 514.265 3.01207e-17)
(1970.43 457.152 -1.58552e-17)
(1964.68 361.046 -8.13549e-18)
(1949.68 281.573 8.34119e-18)
(1932.71 170.411 4.34674e-21)
(1920.06 85.9502 1.11762e-18)
(1918.3 -2.6145 -1.07403e-18)
(1920.42 -93.2578 8.52375e-18)
(1937.06 -174.716 -8.51855e-18)
(1953.38 -296.068 0)
(1984.05 -366.107 -1.51606e-20)
(1974.7 -463.481 0)
(2006.43 -520.6 0)
(1979.45 -558.681 -1.62514e-17)
(1952.29 -525.677 1.46839e-17)
(1937.29 -400.997 0)
(1887.24 -338.938 3.66088e-17)
(1726.91 -318.666 2.10248e-18)
(1137.92 -239.188 -1.04786e-16)
(1209.37 222.82 5.05209e-17)
(1767.81 293.22 1.93593e-20)
(1901.85 276.515 3.08682e-17)
(1942.31 322.949 -2.31661e-17)
(1970.47 476.892 -1.76006e-17)
(1996.92 519.372 0)
(2023.32 488.099 7.51965e-21)
(1985.04 430.566 1.51887e-17)
(1984 341.151 -1.57825e-17)
(1964.88 270.839 0)
(1954.38 170.475 0)
(1947.14 82.3638 -2.58369e-20)
(1942.42 -3.41148 3.2207e-20)
(1947.94 -92.9004 1.68029e-20)
(1957.41 -176.801 4.08229e-18)
(1966.51 -284.462 -4.03892e-18)
(2003.37 -344.799 8.37117e-21)
(1993.11 -446.165 1.55404e-17)
(2022.81 -496.275 -2.89191e-17)
(1993.99 -524.04 1.40536e-17)
(1966.1 -485.048 -1.4893e-20)
(1941.87 -323.905 0)
(1902.67 -280.513 1.69349e-20)
(1755.72 -302.497 4.04494e-17)
(1207.65 -246.233 -1.00815e-16)
(1209.36 187.027 -4.9746e-17)
(1766.55 261.755 -3.82743e-17)
(1905.58 233.534 3.49332e-17)
(1933.43 251.386 1.45038e-17)
(1977.99 394.435 -1.82087e-17)
(2005.68 460.023 0)
(2028 462.612 3.66759e-21)
(1995.9 418.391 -1.10873e-20)
(1998.59 335.174 7.58568e-18)
(1987.73 265.203 -1.56178e-17)
(1975.9 160.538 7.8912e-18)
(1965.52 83.2351 1.98617e-18)
(1964.95 -1.42026 -1.86005e-18)
(1965.14 -88.3558 1.84632e-18)
(1979.24 -161.033 -1.97645e-18)
(1988.8 -276.485 0)
(2015.97 -337.321 1.12314e-20)
(2002.9 -421.664 -3.57179e-21)
(2029.8 -473.912 -1.48175e-17)
(2005.54 -474.17 1.36736e-17)
(1974.51 -405.373 0)
(1932.69 -262.023 0)
(1910.65 -235.795 -4.08305e-21)
(1777.89 -272.719 -4.01219e-17)
(1254.31 -216.696 -1.65311e-18)
(1246.49 169.43 -2.34298e-17)
(1781.91 241.552 1.96952e-17)
(1918.73 212.008 4.10609e-21)
(1930.41 183.96 0)
(1986.27 325.419 1.35208e-17)
(2017.81 421.116 -1.61319e-17)
(2040.19 433.238 3.40944e-21)
(2009.87 388.889 3.66511e-21)
(2016.93 312.97 1.39834e-20)
(2000.36 251.979 -1.88936e-18)
(1992.9 159.287 9.55905e-19)
(1988.51 78.7127 1.87685e-18)
(1984.71 -2.54876 -9.63465e-19)
(1988.62 -88.152 3.8257e-18)
(1995.51 -163.123 -3.81516e-18)
(1999.69 -263.288 0)
(2035.59 -317.386 1.01651e-20)
(2020.36 -404.021 -1.51011e-17)
(2041.02 -442.706 1.32562e-17)
(2016.61 -432.294 3.47615e-21)
(1984.69 -341.827 0)
(1930.25 -186.058 0)
(1928.18 -213.053 4.11657e-21)
(1790.5 -248.418 -3.94602e-17)
(1257.79 -181.22 4.63383e-17)
(1281.51 141.268 2.34818e-20)
(1790.93 208.065 0)
(1931.27 181.827 -7.81779e-21)
(1936.39 129.783 -1.43602e-17)
(1986.31 242.422 1.77622e-17)
(2020.43 351.365 -1.31013e-17)
(2041.53 392.829 1.51722e-17)
(2018.76 368.008 -7.02263e-18)
(2028.4 302.931 7.35714e-18)
(2020.05 243.541 -3.64465e-18)
(2011.43 145.733 3.69999e-18)
(2002.83 75.6323 -1.82721e-18)
(2003.12 -3.16022 2.08783e-18)
(2002.24 -85.5764 -2.47291e-19)
(2014.67 -150.794 3.69731e-18)
(2019.99 -257.969 -7.29714e-18)
(2045.07 -307.695 -3.76446e-18)
(2029.09 -375.427 7.00898e-18)
(2046.05 -409.716 1.34672e-20)
(2022.49 -367.558 -6.98849e-21)
(1984.59 -246.533 0)
(1936.26 -143.879 0)
(1937.95 -186.664 0)
(1796.25 -211.032 -1.9343e-17)
(1254.11 -151.599 2.29081e-17)
(1305.13 138.53 -2.78952e-21)
(1799.45 189.187 0)
(1947.15 166.053 9.84435e-21)
(1940.99 86.166 -7.927e-21)
(1972.74 169.458 -7.22027e-21)
(2029.64 299.843 0)
(2049.54 352.446 -6.61294e-21)
(2030.28 337.482 6.85518e-18)
(2044.63 281.041 -7.24609e-18)
(2030.46 231.123 0)
(2025.25 146.941 1.70401e-21)
(2022.51 74.609 0)
(2019.82 -1.1163 0)
(2022.56 -81.9561 1.79724e-18)
(2027.23 -147.99 -1.79984e-18)
(2027.46 -240.211 -7.24238e-21)
(2062.78 -286.275 -1.65257e-21)
(2042.59 -352.392 6.98817e-21)
(2049.81 -363.652 -7.50251e-18)
(2031.11 -322.106 6.38577e-18)
(1976.63 -188.886 -1.72809e-17)