/*--------------------------------*- C++ -*----------------------------------*\
| =========                 |                                                 |
| \\      /  F ield         | OpenFOAM: The Open Source CFD Toolbox           |
|  \\    /   O peration     | Version:  2112                                  |
|   \\  /    A nd           | Website:  www.openfoam.com                      |
|    \\/     M anipulation  |                                                 |
\*---------------------------------------------------------------------------*/
FoamFile
{
    version     2.0;
    format      ascii;
    arch        "LSB;label=32;scalar=64";
    class       surfaceScalarField;
    location    "0.01071";
    object      phi;
}
// * * * * * * * * * * * * * * * * * * * * * * * * * * * * * * * * * * * * * //

dimensions      [1 0 -1 0 0 0 0];

oriented        oriented;

internalField   nonuniform List<scalar> 
27436
(
-0.53347
8.19281
-0.0933515
7.47169
-0.0849194
7.78715
-0.0704963
7.78625
-0.0635974
7.78794
-0.0469766
7.78051
-0.0388055
7.78927
-0.0373809
7.79408
-0.0276408
7.78725
-0.0155732
7.78623
-0.0072557
7.78935
0.00136226
7.78848
0.0143347
7.78384
0.0311267
7.7809
0.0462353
7.78231
0.0549192
7.78823
0.0580519
7.7926
0.0658391
7.78974
0.0753287
7.78832
0.0895385
7.78252
0.0962255
7.78791
0.111752
7.78551
0.124112
7.78241
0.573767
7.46281
8.21596
-0.247211
8.44001
-0.0961459
7.32066
-0.0812533
7.77241
-0.0547976
7.7599
-0.0595742
7.79301
-0.0620477
7.78353
-0.0391612
7.76725
-0.0283787
7.78423
-0.0182584
7.77625
-0.00821051
7.77615
0.000660505
7.77844
0.0147786
7.77429
0.0149252
7.78375
0.0215066
7.77435
0.0210397
7.78279
0.0377147
7.77157
0.0466153
7.7837
0.0589653
7.7774
0.0823456
7.76493
0.077645
7.78722
0.0721429
7.79345
0.102917
7.75473
0.114174
7.7715
0.267488
7.30799
8.47682
-0.227251
8.66723
-0.141146
7.2345
-0.120583
7.75183
-0.107604
7.74703
-0.105407
7.79091
-0.105394
7.78334
-0.0879673
7.74811
-0.0785562
7.76995
-0.0677062
7.7672
-0.0497925
7.76276
-0.0361443
7.7712
-0.0139545
7.7523
-0.0126285
7.78232
-0.0114699
7.77312
-0.00830296
7.77962
0.012697
7.75058
0.0241124
7.77229
0.0472566
7.7542
0.0609709
7.75122
0.0594008
7.78878
0.0637898
7.78903
0.0786463
7.73997
0.100368
7.74991
0.192549
7.21397
8.67152
-0.169558
8.83677
-0.139512
7.20441
-0.134317
7.74661
-0.11345
7.72611
-0.113357
7.7909
-0.107542
7.77741
-0.0887365
7.72792
-0.0770559
7.7562
-0.0626123
7.75419
-0.0429528
7.74384
-0.0264038
7.75582
-0.00558588
7.73162
0.0030169
7.77359
0.00480284
7.77127
0.0149174
7.76949
0.0353195
7.73017
0.0495022
7.75809
0.0696181
7.73402
0.0885468
7.7323
0.0942373
7.78307
0.094436
7.7888
0.118914
7.71559
0.111167
7.75752
0.161622
7.16398
8.83997
-0.0736374
8.91041
-0.0367094
7.16749
-0.092643
7.80255
-0.0625801
7.69613
-0.069293
7.79769
-0.066074
7.77416
-0.0524328
7.71292
-0.0427508
7.74473
-0.0303075
7.74311
-0.0134336
7.72911
0.00163162
7.74191
0.0187072
7.71486
0.0268458
7.76528
0.0275568
7.7705
0.0369918
7.76005
0.054404
7.71275
0.0645298
7.74795
0.0819137
7.71658
0.0969631
7.71725
0.101081
7.77894
0.0968776
7.79298
0.124794
7.68768
0.0897616
7.79245
0.0966302
7.15815
8.94126
0.118444
8.79195
0.0436001
7.24232
-0.0502641
7.8964
-0.0124493
7.65841
-0.0309376
7.8162
-0.0330882
7.77572
-0.0255776
7.70479
-0.0211429
7.73908
-0.0132886
7.73692
-0.000748979
7.72192
0.00935422
7.73277
0.0218558
7.70249
0.0258295
7.76117
0.0249676
7.77136
0.0296314
7.75538
0.0422187
7.70015
0.0464362
7.74371
0.0582415
7.70474
0.0683872
7.7071
0.069081
7.77824
0.0524372
7.80957
0.0884318
7.65173
-0.0138941
7.89445
-0.0205884
7.16508
8.92033
0.304524
8.48739
0.135921
7.41089
-0.00693588
8.03933
0.0223443
7.62949
-0.0215654
7.86007
-0.0463857
7.80106
-0.0619573
7.71945
-0.078345
7.7556
-0.0905454
7.75154
-0.0915621
7.72833
-0.107783
7.74866
-0.116667
7.71123
-0.13032
7.77474
-0.146286
7.78732
-0.158069
7.76716
-0.166322
7.70839
-0.184915
7.76228
-0.193184
7.71296
-0.20806
7.72196
-0.22867
7.79883
-0.262768
7.84361
-0.284754
7.67373
-0.35428
7.96359
-0.65813
7.4693
8.25981
0.873255
7.61404
0.521855
7.76221
0.410573
8.15071
0.332417
7.70765
0.268915
7.92339
0.22753
7.84157
0.190309
7.75649
0.16006
7.78792
0.134994
7.77942
0.11971
7.74741
0.0881602
7.77925
0.0643005
7.73497
0.0387456
7.8003
0.00678264
7.81928
-0.019216
7.79315
-0.0444092
7.73356
-0.0742312
7.79209
-0.100857
7.73956
-0.130771
7.75184
-0.167106
7.83516
-0.228189
7.90462
-0.279076
7.72458
-0.405888
8.09005
-0.693335
7.75685
7.56197
0.592892
7.02101
0.410105
7.94497
0.237788
8.32303
0.187831
7.75787
0.129212
7.98176
0.096541
7.87452
0.0808314
7.77181
0.0724714
7.79944
0.0733249
7.7809
0.0804246
7.74251
0.0771426
7.78016
0.0745224
7.73689
0.0782324
7.79684
0.0768839
7.8206
0.0770089
7.79299
0.0724147
7.73813
0.0674638
7.79701
0.0627727
7.74422
0.056066
7.75851
0.0293165
7.86183
-0.0266893
7.96052
-0.0465603
7.74434
-0.219266
8.26232
-0.371673
7.90893
7.18788
-3.05171
10.0725
-3.39159
8.28512
-2.76496
7.69647
-2.62216
7.61434
-2.30391
7.6629
-1.93459
7.50411
-1.66618
7.50599
-1.37443
7.51251
-1.08154
7.48945
-0.780483
7.44096
-0.490303
7.48575
-0.206465
7.45253
0.0993548
7.49157
0.40386
7.51601
0.694918
7.50185
0.967193
7.46584
1.26358
7.50061
1.54076
7.46703
1.83484
7.46438
2.19623
7.50041
2.5018
7.65488
2.66046
7.58558
3.23438
7.68813
2.95054
8.19224
10.1396
-4.25833
14.331
-4.36513
8.39343
-4.19279
7.52309
-3.89296
7.31169
-3.31403
7.08226
-2.82249
7.01295
-2.37574
7.06293
-1.91375
7.05387
-1.45307
7.0293
-1.01378
7.00035
-0.561681
7.02866
-0.119233
7.01004
0.343382
7.02952
0.811259
7.0479
1.25898
7.05395
1.67799
7.04681
2.13045
7.04814
2.56814
7.02935
3.02267
7.00981
3.57439
6.94864
4.13227
7.09699
4.44344
7.27423
4.61446
7.51721
4.56456
8.24175
14.7059
-2.75173
17.0845
-4.85943
10.504
-4.96304
7.62475
-4.13434
6.47914
-3.64555
6.59246
-3.2091
6.57789
-2.70547
6.56203
-2.19571
6.54352
-1.69357
6.52635
-1.21768
6.52317
-0.724958
6.53269
-0.241752
6.52778
0.261538
6.52664
0.762678
6.54635
1.25782
6.55851
1.71778
6.58678
2.20645
6.55952
2.69572
6.54012
3.18937
6.51613
3.66481
6.47309
4.24659
6.51517
5.09738
6.42335
4.72165
7.89316
2.77908
10.1848
17.4858
2.36854
14.7179
0.186693
12.6942
-4.99778
12.8103
-3.90187
5.38041
-3.82061
6.51062
-3.32055
6.08058
-2.86071
6.10321
-2.34984
6.0298
-1.83319
6.00897
-1.32559
6.01614
-0.812508
6.02006
-0.30464
6.02187
0.215865
6.00653
0.742696
6.01895
1.26315
6.03753
1.78454
6.06517
2.28018
6.06404
2.76064
6.05992
3.19984
6.07695
3.75813
5.9146
3.97045
6.3026
5.10553
5.28874
-0.183148
13.1826
-2.39965
12.4021
15.0862
2.45125
12.2695
3.52909
11.6247
3.42785
12.9187
-0.863702
9.65643
-3.60703
9.25158
-3.21074
5.67995
-2.95447
5.84695
-2.46267
5.53661
-1.94647
5.49392
-1.46641
5.53976
-0.97398
5.5316
-0.47122
5.52087
0.0298467
5.50604
0.534199
5.51388
1.03077
5.54007
1.52123
5.57427
2.02305
5.56243
2.48215
5.60131
2.61188
5.94726
2.98482
5.54155
-0.0919365
9.37887
-4.15933
9.35444
-3.88015
12.9047
-2.95663
11.4799
12.1304
1.87427
10.3981
3.86515
9.63738
5.78787
11.0051
4.98301
10.4664
4.00339
10.2042
-1.29512
10.9685
-2.37632
6.93566
-2.04406
5.20393
-1.63356
5.08625
-1.13854
5.04902
-0.601534
4.99823
-0.0608211
4.98107
0.473634
4.97177
1.00853
4.97798
1.54653
5.00066
2.05402
5.06613
2.44531
5.17162
2.80026
5.24744
1.50645
7.2408
-3.6673
10.7134
-4.23909
9.94977
-4.89262
10.0076
-3.0539
11.0666
-1.33417
9.76126
10.7974
1.08919
9.31108
2.16885
8.56243
3.9911
9.1946
4.9593
9.50331
5.07274
10.0861
5.787
10.2432
2.71393
10.0129
1.0985
6.82454
-0.0841083
6.27158
-0.394188
5.36289
-0.248524
4.85373
0.0456555
4.68646
0.396564
4.61942
0.719157
4.6536
0.929483
4.78876
0.805922
5.18879
-0.520143
6.4978
-2.33521
7.0635
-5.02857
9.9334
-4.28088
9.96434
-3.97156
9.64043
-3.50981
9.54569
-1.8626
9.4199
-0.762282
8.66138
10.0359
2.00852
7.30167
3.17952
7.39201
4.38866
7.98879
5.96985
7.92717
7.08
8.97513
6.64325
10.6625
4.66885
11.9841
2.12167
9.3769
0.847607
7.55165
0.148669
6.06607
-0.0354595
5.0393
-0.0675673
4.71875
-0.034111
4.58521
-0.0238018
4.64357
-0.158273
4.92403
-0.803463
5.83533
-2.35213
8.04766
-4.92532
9.63725
-6.73689
11.742
-7.24651
10.4743
-6.42382
8.818
-5.00364
8.12564
-3.70826
8.12479
-2.56082
7.51414
7.4753
2.53898
4.76106
4.16037
5.76938
4.70846
7.4392
4.3458
8.2844
4.54959
8.77024
4.31871
10.8917
4.14868
12.1507
2.51181
11.0168
1.33546
8.72856
0.576575
6.82524
0.201556
5.4134
-0.0956464
5.01265
-0.392981
4.87978
-0.693362
4.94211
-1.02894
5.25861
-1.8855
6.69159
-3.20525
9.36862
-4.89989
11.3333
-5.8318
12.6697
-6.23276
10.8724
-5.96704
8.55172
-5.94289
8.10169
-4.96528
7.14745
-2.941
5.48986
4.53448
3.16686
1.59337
6.24211
2.6931
8.49017
5.1893
8.28964
8.47529
6.49814
10.5617
5.95419
11.4374
5.61103
12.4952
4.91531
11.7117
4.16707
9.47417
3.25014
7.73908
1.98348
6.6783
0.822194
6.17284
-0.325157
6.02637
-1.51579
6.13181
-2.88128
6.62297
-3.9727
7.78205
-4.38841
9.78398
-4.76795
11.7119
-4.64667
12.5458
-5.27587
11.5012
-7.53393
10.8095
-7.8584
8.42444
-5.77228
5.06123
-2.95957
2.67732
1.575
1.20168
0.391983
2.93179
0.963254
4.96143
3.15884
6.48722
6.94549
5.7802
11.266
5.46532
11.7516
5.4407
12.5192
4.89513
12.2592
3.82443
10.5461
2.66325
8.90092
1.51354
7.82887
0.382099
7.30496
-0.748149
7.15678
-1.91372
7.2972
-3.16112
7.86979
-4.45623
9.07697
-5.47456
10.8025
-5.89578
12.1331
-5.82041
12.4702
-6.09508
11.7765
-6.67608
11.3899
-4.98937
6.73714
-2.98114
3.05279
-1.21192
0.908009
0.362984
0.581621
-0.188739
0.870381
0.675532
1.0095
3.01934
1.32598
6.62718
2.26288
10.3249
2.91747
11.0948
3.42583
12.0077
3.35338
12.3326
2.67598
11.2259
1.804
9.7744
0.945464
8.68819
0.11132
8.13925
-0.727554
7.99535
-1.60214
8.17141
-2.54432
8.81155
-3.4924
10.0252
-4.10283
11.4132
-4.03992
12.0701
-3.42261
11.8531
-2.72131
11.0748
-1.66533
10.3329
-1.14211
6.21432
-0.916891
2.82765
-0.597631
0.588644
-0.234995
-0.153025
-0.0361894
-0.295475
0.818578
-0.694667
3.41957
-0.655801
6.58741
0.392691
9.27547
1.30754
10.1783
1.90937
11.4033
2.04887
12.1933
1.75649
11.5205
1.28119
10.2511
0.72643
9.24317
0.153526
8.71189
-0.408255
8.55676
-0.985682
8.7488
-1.54532
9.37135
-1.98714
10.4677
-2.17069
11.5974
-1.96034
11.8603
-1.27838
11.1714
-0.3027
10.0996
0.79684
9.23358
0.685874
6.32591
0.360065
3.15379
0.199519
0.749303
-0.0353008
-0.525361
0.489122
-1.365
1.65885
-1.78125
3.83716
-1.80412
6.61083
-0.921359
8.39396
-0.05571
9.31061
0.473437
10.8717
0.779667
11.887
0.867195
11.4342
0.733963
10.3845
0.499603
9.47688
0.224218
8.98671
-0.0719948
8.8527
-0.333489
9.01061
-0.531154
9.56955
-0.601575
10.5386
-0.473114
11.4695
-0.189734
11.5772
0.442009
10.5403
1.30216
9.23938
2.16814
8.36712
2.02994
6.46458
1.49681
3.68739
0.542496
1.70439
0.507518
-0.400591
0.889404
-1.50757
2.76608
-2.42752
4.75781
-2.55037
6.73516
-2.06549
7.91056
-1.58968
8.83423
-1.0246
10.3069
-0.509443
11.3732
-0.156331
11.081
0.00815581
10.2192
0.0247089
9.45926
-0.0463638
9.05706
-0.131858
8.93808
-0.206449
9.08545
-0.192582
9.55606
-0.0129928
10.3591
0.34838
11.1081
0.830778
11.0944
1.34048
10.0301
1.91816
8.66159
2.45453
7.83136
2.33306
6.58677
1.36522
4.65565
0.352349
2.7178
0.86073
-0.383737
1.27271
-1.3948
3.77635
-2.18546
5.54916
-2.42862
6.97916
-2.19303
7.67567
-1.88225
8.52473
-1.44778
9.87451
-0.91898
10.8457
-0.471127
10.6311
-0.222491
9.96849
-0.104858
9.34045
-0.0516851
9.00335
-0.0335265
8.9197
0.0296334
9.02224
0.169415
9.41627
0.435822
10.0926
0.867654
10.6754
1.37779
10.5846
1.76699
9.64127
2.10545
8.32367
2.37555
7.56119
2.10985
6.85244
1.29449
5.47035
0.343551
3.66815
1.20449
-0.35313
1.626
-1.23493
4.65681
-2.05596
6.37247
-2.4151
7.33923
-2.38077
7.64194
-2.15341
8.29777
-1.77487
9.49739
-1.21734
10.2881
-0.720508
10.1316
-0.343606
9.58873
-0.127077
9.12254
0.0122898
8.86325
0.150756
8.78079
0.294022
8.8786
0.525143
9.18477
0.930305
9.68688
1.44522
10.1601
1.958
10.0704
2.28143
9.31724
2.49473
8.11014
2.5043
7.5514
2.13725
7.22081
1.24119
6.36759
0.3523
4.55736
1.5585
-0.475979
2.10354
-1.39366
5.57416
-2.21053
7.18919
-2.53615
7.66509
-2.59047
7.69822
-2.45784
8.1672
-2.16466
9.20584
-1.65576
9.77839
-1.13588
9.60726
-0.749042
9.19965
-0.459798
8.832
-0.223842
8.62662
-0.029218
8.58555
0.20635
8.64245
0.501157
8.88946
0.877632
9.30965
1.35239
9.68461
1.83309
9.59018
2.13999
9.00972
2.29451
7.95615
2.23648
7.6093
1.95451
7.50386
1.21729
7.10491
0.361442
5.41448
1.92056
-0.366641
2.47285
-1.23492
6.44419
-1.97885
7.93439
-2.16963
7.85639
-2.35462
7.88305
-2.26807
8.08012
-1.98689
8.92483
-1.49296
9.28229
-1.02359
9.13448
-0.613601
8.78774
-0.309912
8.52713
-0.0645438
8.38049
0.182233
8.33805
0.428267
8.39585
0.740418
8.57659
1.17941
8.87021
1.66369
9.19938
2.10332
9.14986
2.33818
8.77463
2.40599
7.8877
2.19367
7.82022
1.94293
7.75353
1.17911
7.86866
0.372043
6.2228
2.2955
-0.304576
2.77498
-1.20659
7.34664
-1.91914
8.64863
-2.08776
8.02808
-2.23303
8.0281
-2.16521
8.01359
-1.92102
8.68
-1.49136
8.84992
-1.0295
8.67006
-0.65172
8.40848
-0.315983
8.19061
-0.0147208
8.07852
0.256246
8.06636
0.566012
8.08544
0.915563
8.22642
1.30192
8.48286
1.74122
8.75974
2.16165
8.72849
2.37738
8.55782
2.44497
7.82091
2.28223
7.98337
2.09363
7.94407
1.41109
8.55325
0.475012
7.16509
2.77253
-0.538813
3.30599
-1.44313
8.25168
-2.05224
9.25488
-2.22574
8.19854
-2.40166
8.20138
-2.43752
8.05144
-2.24
8.48282
-1.78608
8.39524
-1.35001
8.23172
-0.935309
7.99309
-0.599504
7.85422
-0.304984
7.78329
-0.00191989
7.76245
0.293649
7.78923
0.634802
7.88458
1.05703
8.05997
1.48805
8.32774
1.87142
8.34546
2.07075
8.35795
2.03282
7.8561
1.92957
8.0848
1.71956
8.15475
1.15467
9.1246
0.392051
7.93634
3.15967
-0.473472
3.77975
-1.289
9.07231
-1.87995
9.85073
-2.031
8.34996
-2.03624
8.20612
-2.01612
8.03185
-1.82454
8.29051
-1.46935
8.03872
-1.07422
7.83542
-0.728902
7.64761
-0.392998
7.51771
-0.0678926
7.45774
0.233789
7.45996
0.563863
7.45878
0.90583
7.54174
1.26192
7.70305
1.64397
7.94457
2.01055
7.97747
2.15358
8.21608
2.15866
7.85315
2.14491
8.09915
1.93473
8.3664
1.40723
9.66088
0.541004
8.7964
3.69326
-0.412412
4.19214
-0.821087
9.47697
-1.59764
10.6266
-1.7584
8.51408
-1.82082
8.27167
-1.77729
7.99146
-1.64789
8.16146
-1.32195
7.71149
-0.99916
7.51241
-0.655186
7.30336
-0.353064
7.21529
-0.0714871
7.17522
0.22913
7.15882
0.506891
7.17991
0.816607
7.23141
1.18531
7.33366
1.52729
7.60215
1.79718
7.70718
1.92125
8.0909
1.94818
7.82528
1.9347
8.11229
1.86192
8.44012
1.13683
10.3812
0.591933
9.34059
4.3083
-0.632384
4.81947
-1.11084
9.94664
-1.84648
11.3578
-1.98886
8.65002
-1.95488
8.23463
-1.88928
7.92491
-1.71267
7.98313
-1.42444
7.42464
-1.1091
7.19653
-0.821821
7.0162
-0.528776
6.92183
-0.222785
6.86907
0.0609551
6.8744
0.37182
6.86849
0.670155
6.93225
0.952339
7.05069
1.24949
7.30436
1.54566
7.40955
1.68336
7.95359
1.75354
7.75413
1.75063
8.11527
1.70345
8.4849
0.797026
11.2974
0.432716
9.72498
4.765
-0.451171
5.26528
-0.768604
10.2541
-1.38336
11.9754
-1.59719
8.86818
-1.65408
8.29588
-1.60547
7.87918
-1.45116
7.83206
-1.18693
7.1603
-0.910189
6.91954
-0.606734
6.71268
-0.326728
6.64152
-0.0681743
6.60987
0.214455
6.59133
0.470556
6.61177
0.751896
6.65013
1.06872
6.73297
1.34744
7.02398
1.58905
7.16833
1.74461
7.79755
1.76546
7.73212
1.75054
8.12755
1.46389
8.77508
1.00011
11.7656
0.449069
10.2659
5.17199
-0.31498
5.57904
-0.495336
10.4302
-1.02229
12.5095
-1.52249
9.37922
-1.56657
8.34427
-1.48381
7.79949
-1.26437
7.61067
-1.05544
6.95024
-0.815995
6.68108
-0.580808
6.4773
-0.334334
6.3948
-0.0692902
6.34454
0.171624
6.35
0.44047
6.34209
0.684905
6.40502
0.916785
6.50073
1.16263
6.77786
1.39475
6.93377
1.57137
7.6216
1.62291
7.68189
1.67306
8.08034
1.24982
9.1991
0.724816
12.29
0.277517
10.6946
5.43088
-0.460559
6.0404
-0.698863
10.6718
-1.00032
12.8052
-1.60589
9.97426
-1.56301
8.29431
-1.51506
7.74693
-1.37466
7.46719
-1.12382
6.70104
-0.909903
6.46755
-0.656906
6.22425
-0.417043
6.1548
-0.197838
6.12524
0.0482907
6.10347
0.265444
6.1246
0.513837
6.15608
0.777282
6.23576
0.981293
6.57326
1.19629
6.71675
1.35456
7.46029
1.39025
7.6437
1.34773
8.12104
0.741698
9.80371
0.427419
12.6103
0.21301
10.8964
5.61591
-0.249297
6.29726
-0.375149
10.796
-0.50396
12.9338
-1.24616
10.7218
-1.37159
8.42604
-1.33809
7.71862
-1.12542
7.26003
-0.909488
6.48578
-0.69852
6.25682
-0.50319
6.0289
-0.28958
5.94108
-0.0509117
5.88633
0.163436
5.88879
0.408284
5.87928
0.617188
5.94619
0.810501
6.0426
1.03846
6.34464
1.27865
6.4775
1.45839
7.2827
1.4801
7.62164
1.40871
8.19236
0.701982
10.5118
0.621723
12.6739
0.514493
11.0152
6.15287
-0.0554556
6.37321
-0.0781987
10.8159
-0.108054
12.9582
-0.795627
11.4218
-1.18334
8.81692
-1.13779
7.67434
-1.02909
7.15034
-0.833235
6.28917
-0.654454
6.07852
-0.445301
5.81941
-0.241985
5.73786
-0.0620237
5.70623
0.146511
5.68004
0.321851
5.70362
0.526985
5.74104
0.756056
5.81241
0.921905
6.17815
1.10416
6.29312
1.27564
7.11064
1.34111
7.55709
0.978994
8.55604
0.31509
11.1864
0.28408
12.6947
0.318678
10.9195
6.52723
-0.22994
6.6119
-0.391466
10.9728
-0.240418
12.806
-0.761414
11.9345
-1.331
9.37185
-1.23049
7.56771
-1.06345
6.98132
-0.883251
6.11115
-0.691147
5.88834
-0.52513
5.65383
-0.354151
5.56687
-0.149692
5.50182
0.0319783
5.4981
0.23535
5.50001
0.406591
5.56911
0.567884
5.65109
0.774518
5.97105
0.947598
6.1201
1.04762
7.00774
1.12689
7.47513
0.483981
9.20143
-0.0843738
11.7562
0.0435994
12.556
0.0796558
10.9096
6.67812
-0.0343051
6.64387
-0.0655285
11.0078
0.114037
12.6296
-0.180113
12.234
-0.865306
10.0732
-0.937591
7.64769
-0.864158
6.9148
-0.718596
5.96853
-0.57354
5.74355
-0.386025
5.46593
-0.201967
5.38305
-0.0435887
5.34323
0.135902
5.31857
0.293098
5.34308
0.476506
5.3859
0.682371
5.44561
0.814933
5.83865
0.962353
5.97429
1.09138
6.88076
1.03623
7.52933
0.401676
9.83201
0.101686
12.0572
0.253573
12.4315
0.196729
11.0524
6.86831
0.0225499
6.61679
0.079809
10.9536
0.293058
12.4243
0.204171
12.3211
-0.54653
10.8426
-0.9105
8.01296
-0.735774
6.73779
-0.636227
5.86715
-0.487465
5.59465
-0.352332
5.33057
-0.2099
5.24071
-0.0427325
5.17615
0.112488
5.16335
0.286407
5.16864
0.423944
5.24825
0.561665
5.30737
0.742599
5.65647
0.839485
5.87545
1.05067
6.66919
0.764719
7.81865
-0.000997139
10.6031
-0.132605
12.1906
0.0254635
12.2921
-0.0373493
11.0811
6.79214
-0.123849
6.73793
-0.0898632
10.9172
0.0750236
12.2589
0.141195
12.2346
-0.324808
11.2955
-0.814916
8.49535
-0.775151
6.69867
-0.662493
5.75819
-0.568701
5.50293
-0.417303
5.18042
-0.2614
5.08533
-0.123142
5.03792
0.02848
5.01172
0.160747
5.03679
0.321165
5.08822
0.4779
5.15199
0.551243
5.58462
0.631438
5.79674
0.728524
6.57155
0.183086
8.36401
-0.422446
11.2117
-0.334911
12.1059
-0.286289
12.2561
-0.162507
10.9568
6.58033
-0.0337046
6.7704
0.0438796
10.8358
0.200765
12.098
0.549253
11.8922
0.111148
11.7475
-0.492523
9.11598
-0.646873
6.86347
-0.509097
5.62238
-0.411343
5.40421
-0.303805
5.07152
-0.1827
4.96405
-0.0356115
4.89107
0.103628
4.87287
0.257488
4.88309
0.374132
4.97178
0.49396
5.03183
0.640533
5.43856
0.75901
5.67913
0.635538
6.6972
0.0788526
8.9169
-0.294563
11.5778
-0.107035
11.9165
0.0102612
12.1262
0.0979566
10.808
6.62344
0.0882424
6.68086
0.258192
10.6609
0.319966
12.0298
0.581987
11.6191
0.731181
11.593
-0.0492288
9.90491
-0.47034
7.27277
-0.447561
5.59661
-0.371406
5.32721
-0.271313
4.97282
-0.14542
4.83886
-0.0309688
4.77676
0.0970755
4.74517
0.208863
4.77123
0.343524
4.83735
0.453481
4.9224
0.522752
5.36844
0.592475
5.60853
0.332884
6.95721
-0.425634
9.68419
-0.484284
11.648
-0.209112
11.6386
-0.155843
12.0531
-0.0122518
10.6158
6.60203
-0.122526
6.80223
-0.0124742
10.5504
0.0989552
11.9078
0.359677
11.3512
0.624916
11.3134
0.0628973
10.4595
-0.40465
7.73731
-0.466589
5.66379
-0.383426
5.2457
-0.304276
4.89395
-0.215975
4.75091
-0.0936271
4.65484
0.0226149
4.62898
0.145618
4.64905
0.231582
4.75242
0.316722
4.83781
0.41169
5.2757
0.320375
5.70158
-0.159536
7.43699
-0.806608
10.3263
-0.576393
11.4082
-0.347131
11.3993
-0.259095
11.9559
-0.06176
10.4279
6.57609
0.0475287
6.75364
0.231205
10.372
0.292736
11.8508
0.481255
11.1796
0.885792
10.9142
0.709197
10.6442
0.00481915
8.45491
-0.30141
5.97157
-0.318299
5.26012
-0.215234
4.78986
-0.119755
4.65523
-0.0290316
4.5637
0.0803711
4.51854
0.171852
4.5575
0.280413
4.6442
0.349694
4.7674
0.37979
5.24413
0.139583
5.94298
-0.450516
8.02929
-0.790093
10.6647
-0.350927
10.9617
-0.138512
11.1546
-0.0963101
11.9107
0.0319419
10.3805
6.64043
0.0630988
6.69455
0.294309
10.1499
0.394734
11.754
0.573708
10.9829
0.837821
10.6352
0.96972
10.4986
0.304161
9.11386
-0.0814337
6.35081
-0.211799
5.38886
-0.159469
4.73929
-0.0974144
4.59423
-0.0155413
4.48269
0.0709385
4.43814
0.164289
4.46504
0.227532
4.58157
0.313538
4.68227
0.255484
5.30302
-0.134138
6.33008
-0.844595
8.74147
-0.734191
10.5598
-0.412588
10.63
-0.215984
10.9615
-0.170652
11.9369
0.014509
10.2462
6.68619
-0.0242764
6.72114
0.143886
9.98784
0.26265
11.6344
0.397373
10.8444
0.622283
10.4179
1.03239
10.0936
0.720249
9.43042
0.0681805
7.00692
-0.225978
5.68694
-0.187311
4.70175
-0.126108
4.53315
-0.0575808
4.414
0.0118548
4.36669
0.0758134
4.40172
0.140196
4.51786
0.171063
4.65331
-0.0808949
5.55773
-0.710724
6.96221
-1.19062
9.22331
-0.784415
10.148
-0.542541
10.3862
-0.416714
10.8513
-0.352428
11.8821
-0.0728815
9.98288
6.63194
-0.0209943
6.74181
0.228154
9.73189
0.419932
11.4515
0.528035
10.758
0.741285
10.2131
1.01873
9.81751
0.983651
9.46386
0.360635
7.62747
0.00394766
6.03935
-0.0988375
4.80299
-0.0615679
4.4955
-0.0113528
4.36382
0.0370627
4.31582
0.0924674
4.34692
0.137553
4.47328
0.0893786
4.70093
-0.239205
5.88409
-0.865776
7.58639
-1.04945
9.41113
-0.704708
9.80972
-0.471024
10.1645
-0.391753
10.7646
-0.17011
11.6661
0.0978424
9.72
6.74574
0.0193243
6.73272
0.278882
9.47708
0.538597
11.1822
0.608545
10.6602
0.776877
10.0308
0.994902
9.5952
1.3181
9.13043
0.890579
8.05117
0.174194
6.75747
-0.00715235
4.98687
-0.0162235
4.50597
0.0079761
4.33951
0.0361402
4.28461
0.0683841
4.31565
0.0739047
4.46864
-0.0955991
4.87194
-0.781231
6.57344
-1.18872
7.99287
-0.978052
9.1994
-0.742328
9.58319
-0.564808
10.0066
-0.505059
10.7189
-0.175318
11.3242
0.076497
9.46088
6.82196
-0.0345828
-0.577239
-0.0551271
-0.636745
-0.0827752
-0.684315
-0.106073
-0.758031
-0.134016
-0.835147
-0.16384
-0.911216
-0.187064
-0.980073
-0.202353
-1.04038
-0.208324
-1.09072
-0.208234
-1.1382
-0.201725
-1.17835
-0.190083
-1.19832
-0.174769
-1.21627
-0.156228
-1.23052
-0.136439
-1.24283
-0.116915
-1.25813
-0.0985118
-1.27563
-0.0821296
-1.29406
-0.0673078
-1.3168
-0.0587308
-1.3479
-0.0519355
-1.361
-0.0478795
-1.38646
-0.0441482
-1.41183
-0.0398392
-1.43556
-0.0353653
-1.45805
-0.0297986
-1.48238
-0.0256363
-1.5064
-0.0171898
-1.51533
-0.0067065
-1.50098
-1.43731
0.00701558
-0.585276
-0.0212211
-0.603784
-0.0439218
-0.654006
-0.0716921
-0.71918
-0.0988084
-0.793779
-0.127203
-0.864657
-0.149736
-0.929674
-0.164918
-0.98839
-0.173228
-1.04314
-0.176712
-1.09867
-0.174119
-1.14527
-0.165905
-1.17491
-0.154395
-1.20302
-0.138879
-1.22528
-0.120901
-1.24406
-0.102687
-1.26303
-0.0855203
-1.2816
-0.0713049
-1.29897
-0.0601045
-1.3239
-0.0492571
-1.34974
-0.0431941
-1.3721
-0.0399518
-1.39547
-0.0374121
-1.42106
-0.0352704
-1.44524
-0.0326189
-1.46845
-0.0283573
-1.49081
-0.0248458
-1.513
-0.0199485
-1.52327
-0.00992274
-1.50337
-1.42343
-0.0259465
-0.560123
-0.0567089
-0.568085
-0.0857115
-0.616703
-0.116763
-0.676769
-0.149206
-0.746006
-0.181109
-0.812375
-0.204976
-0.874758
-0.219002
-0.933433
-0.230193
-0.994196
-0.234505
-1.05647
-0.231202
-1.10988
-0.221709
-1.14905
-0.208458
-1.18726
-0.190356
-1.21801
-0.168945
-1.24447
-0.146801
-1.2687
-0.126259
-1.28944
-0.10811
-1.30694
-0.0934087
-1.3321
-0.080753
-1.3578
-0.0721003
-1.37957
-0.0656603
-1.40485
-0.0601205
-1.43076
-0.0549349
-1.45577
-0.0494525
-1.48011
-0.0438107
-1.50282
-0.0354891
-1.51833
-0.0264727
-1.5272
-0.0135223
-1.5103
-1.42925
-0.0438122
-0.515955
-0.078321
-0.526093
-0.113245
-0.573622
-0.147193
-0.631371
-0.183029
-0.694985
-0.216485
-0.757966
-0.239115
-0.816398
-0.258156
-0.878872
-0.270589
-0.944084
-0.277238
-1.01005
-0.275619
-1.06846
-0.268356
-1.11625
-0.256033
-1.16425
-0.237572
-1.20419
-0.214985
-1.23978
-0.190704
-1.27079
-0.167628
-1.29606
-0.14734
-1.31491
-0.129779
-1.34171
-0.113881
-1.36862
-0.100533
-1.38881
-0.0908078
-1.41275
-0.0823089
-1.43767
-0.0736154
-1.46375
-0.0658089
-1.48907
-0.0565299
-1.51057
-0.0462458
-1.52227
-0.0340111
-1.52971
-0.0179511
-1.50935
-1.45216
-0.0444471
-0.470183
-0.0792132
-0.483641
-0.115502
-0.528891
-0.1515
-0.58445
-0.18759
-0.643405
-0.217975
-0.702318
-0.241752
-0.76029
-0.262017
-0.825768
-0.278171
-0.892808
-0.287537
-0.961372
-0.288378
-1.02368
-0.284325
-1.07873
-0.274828
-1.13481
-0.258233
-1.18387
-0.236725
-1.22859
-0.21251
-1.26736
-0.187983
-1.29941
-0.162296
-1.32378
-0.145617
-1.34799
-0.129104
-1.37849
-0.114563
-1.39644
-0.101299
-1.41975
-0.0912124
-1.44245
-0.0811923
-1.46956
-0.0717965
-1.49478
-0.061727
-1.51587
-0.0500232
-1.52583
-0.0364036
-1.53006
-0.0206122
-1.50871
-1.44901
-0.042083
-0.426801
-0.079269
-0.438756
-0.117344
-0.482196
-0.154545
-0.536044
-0.189982
-0.592455
-0.215769
-0.648114
-0.241402
-0.707131
-0.264611
-0.773166
-0.282681
-0.840467
-0.29426
-0.911212
-0.297824
-0.976616
-0.29743
-1.03736
-0.291768
-1.09932
-0.278455
-1.15558
-0.259463
-1.20921
-0.236289
-1.2573
-0.210752
-1.29814
-0.184729
-1.33059
-0.164217
-1.35616
-0.146568
-1.38614
-0.12785
-1.40639
-0.114503
-1.42712
-0.101878
-1.45025
-0.0906907
-1.47653
-0.0796127
-1.50081
-0.0677561
-1.53114
-0.0544996
-1.53513
-0.0390214
-1.53107
-0.0219261
-1.50785
-1.43889
-0.0428673
-0.383509
-0.0812428
-0.392349
-0.12032
-0.434535
-0.157935
-0.486676
-0.19316
-0.542499
-0.217085
-0.596973
-0.243391
-0.65563
-0.268397
-0.721001
-0.287439
-0.788368
-0.300625
-0.8609
-0.306511
-0.928869
-0.309056
-0.994308
-0.30681
-1.06072
-0.297043
-1.12372
-0.281661
-1.18563
-0.261142
-1.24259
-0.236693
-1.29281
-0.209247
-1.33442
-0.182741
-1.36641
-0.164099
-1.39336
-0.145253
-1.41625
-0.128353
-1.43716
-0.112922
-1.46096
-0.0999355
-1.4855
-0.087588
-1.50738
-0.0738645
-1.53125
-0.0582185
-1.53684
-0.0415392
-1.53086
-0.0225998
-1.50763
-1.43588
-0.0444433
-0.336582
-0.0842878
-0.343806
-0.124022
-0.38564
-0.162289
-0.436913
-0.197337
-0.49327
-0.220124
-0.548042
-0.246791
-0.605932
-0.272348
-0.670257
-0.292345
-0.737844
-0.307176
-0.811073
-0.315191
-0.880988
-0.320336
-0.950475
-0.321251
-1.02012
-0.315056
-1.08845
-0.303544
-1.15706
-0.285734
-1.22202
-0.263802
-1.28138
-0.238375
-1.33223
-0.212004
-1.37226
-0.1858
-1.4056
-0.163426
-1.42865
-0.144187
-1.4496
-0.127886
-1.47246
-0.111798
-1.4936
-0.0966727
-1.51337
-0.0806779
-1.53069
-0.0629101
-1.53575
-0.0446384
-1.53349
-0.0238015
-1.50867
-1.43347
-0.048591
-0.284409
-0.0872831
-0.294672
-0.127088
-0.336494
-0.165066
-0.387665
-0.199803
-0.44488
-0.222134
-0.500592
-0.248435
-0.558082
-0.274153
-0.621825
-0.294571
-0.689556
-0.310755
-0.762457
-0.320757
-0.833296
-0.328092
-0.906022
-0.331872
-0.977947
-0.328283
-1.05076
-0.320013
-1.12445
-0.307759
-1.19477
-0.290722
-1.26159
-0.266938
-1.32305
-0.239467
-1.37279
-0.211312
-1.41436
-0.184402
-1.4442
-0.162353
-1.46828
-0.142115
-1.48394
-0.12298
-1.50082
-0.105489
-1.51723
-0.0871142
-1.5314
-0.0677918
-1.53631
-0.0484835
-1.53802
-0.0249636
-1.51149
-1.43504
-0.0502156
-0.229962
-0.0885786
-0.245878
-0.128065
-0.287676
-0.165323
-0.339383
-0.199578
-0.397693
-0.22219
-0.45467
-0.247317
-0.51246
-0.272379
-0.575856
-0.293198
-0.643149
-0.310709
-0.714915
-0.322774
-0.785713
-0.332031
-0.860782
-0.336533
-0.935887
-0.336624
-1.01078
-0.334119
-1.08569
-0.32729
-1.15979
-0.312924
-1.23598
-0.29191
-1.30511
-0.265687
-1.3652
-0.237618
-1.41622
-0.209293
-1.45563
-0.182232
-1.48395
-0.154801
-1.49893
-0.133356
-1.51028
-0.113349
-1.52218
-0.092825
-1.53345
-0.0702651
-1.54279
-0.0498085
-1.54316
-0.0249331
-1.51501
-1.44327
-0.0495918
-0.175539
-0.0879774
-0.197245
-0.126927
-0.239463
-0.163132
-0.292488
-0.196686
-0.351986
-0.219788
-0.41049
-0.24387
-0.469301
-0.26777
-0.532203
-0.288655
-0.598346
-0.30689
-0.668865
-0.320585
-0.738891
-0.329061
-0.817518
-0.336687
-0.891999
-0.342298
-0.966939
-0.343989
-1.04336
-0.339685
-1.12209
-0.329218
-1.20395
-0.311467
-1.28
-0.287489
-1.34995
-0.260067
-1.41145
-0.23153
-1.46007
-0.202628
-1.49616
-0.172305
-1.51494
-0.144659
-1.52277
-0.121479
-1.53188
-0.0993601
-1.54252
-0.0746465
-1.54572
-0.0491031
-1.54414
-0.0243665
-1.53015
-1.49391
-0.0479942
-0.121513
-0.08641
-0.148102
-0.124372
-0.192295
-0.159216
-0.247195
-0.191846
-0.308044
-0.216331
-0.368097
-0.240249
-0.428169
-0.261726
-0.49066
-0.281617
-0.556013
-0.300121
-0.624147
-0.311199
-0.698498
-0.324771
-0.772283
-0.336024
-0.846264
-0.3439
-0.922041
-0.347675
-0.999321
-0.347302
-1.08182
-0.340692
-1.16732
-0.326614
-1.24876
-0.306059
-1.32743
-0.279423
-1.39914
-0.250135
-1.45836
-0.220584
-1.50232
-0.188925
-1.52793
-0.157886
-1.53735
-0.130983
-1.54291
-0.104719
-1.55183
-0.0783577
-1.56008
-0.0514877
-1.56363
-0.0261164
-1.54131
-1.48638
-0.0485652
-0.0669018
-0.0863381
-0.0993993
-0.121524
-0.147203
-0.154392
-0.203956
-0.18574
-0.266349
-0.212578
-0.327
-0.23463
-0.388327
-0.254343
-0.451516
-0.272613
-0.517529
-0.287753
-0.583861
-0.304123
-0.655518
-0.319321
-0.728264
-0.332142
-0.801617
-0.34186
-0.877479
-0.347783
-0.955737
-0.350798
-1.03981
-0.347503
-1.12732
-0.337155
-1.21291
-0.320659
-1.29896
-0.297053
-1.38027
-0.267213
-1.44956
-0.234738
-1.50537
-0.201365
-1.53706
-0.169089
-1.55026
-0.139427
-1.55514
-0.110136
-1.56258
-0.0838573
-1.57088
-0.0563033
-1.57333
-0.028753
-1.55103
-1.48648
-0.0467218
-0.012878
-0.0849368
-0.0521311
-0.118139
-0.103121
-0.149269
-0.162216
-0.178041
-0.227681
-0.203896
-0.288551
-0.225646
-0.351193
-0.245058
-0.414331
-0.263388
-0.479677
-0.278722
-0.546299
-0.29526
-0.615181
-0.311871
-0.685297
-0.325741
-0.758179
-0.336255
-0.833299
-0.344569
-0.912724
-0.350381
-0.997097
-0.350107
-1.08521
-0.343561
-1.17364
-0.33139
-1.26511
-0.311827
-1.35425
-0.284923
-1.43446
-0.252178
-1.49966
-0.213668
-1.54439
-0.177038
-1.564
-0.144862
-1.5685
-0.114441
-1.57314
-0.0882353
-1.57872
-0.0607985
-1.57969
-0.0319541
-1.55964
-1.49495
-0.0468484
0.0414454
-0.081951
-0.00759605
-0.113496