/*--------------------------------*- C++ -*----------------------------------*\
| =========                 |                                                 |
| \\      /  F ield         | OpenFOAM: The Open Source CFD Toolbox           |
|  \\    /   O peration     | Version:  2112                                  |
|   \\  /    A nd           | Website:  www.openfoam.com                      |
|    \\/     M anipulation  |                                                 |
\*---------------------------------------------------------------------------*/
FoamFile
{
    version     2.0;
    format      ascii;
    arch        "LSB;label=32;scalar=64";
    class       volScalarField;
    location    "0.005";
    object      nut;
}
// * * * * * * * * * * * * * * * * * * * * * * * * * * * * * * * * * * * * * //

dimensions      [0 2 -1 0 0 0 0];

internalField   nonuniform List<scalar> 
13875
(
0.0511665
0.0366263
0.0343678
0.0343248
0.0342716
0.0343481
0.0343181
0.0342952
0.034272
0.0342966
0.0342922
0.0342919
0.0343222
0.0343439
0.0343328
0.0342912
0.0342714
0.0342779
0.0342909
0.0343335
0.0342969
0.0343373
0.0343879
0.0365745
0.0514251
0.0532615
0.0341204
0.0322242
0.0321021
0.0320358
0.032093
0.0320595
0.0320287
0.032009
0.0320308
0.0320273
0.0320385
0.0320526
0.032073
0.0320635
0.0320458
0.0320267
0.0320334
0.0320358
0.0320859
0.0320597
0.0321055
0.0322338
0.034055
0.0536376
0.0564565
0.033562
0.031804
0.0315869
0.031533
0.0315838
0.0315056
0.0314362
0.0314109
0.031432
0.0314265
0.0314495
0.0315283
0.0315556
0.0315395
0.0314662
0.0314311
0.0314565
0.0314763
0.0315766
0.0315609
0.0315835
0.0317998
0.0334936
0.056599
0.0590702
0.033233
0.0314905
0.0312705
0.0312279
0.0312724
0.0311925
0.0311044
0.0310737
0.0310946
0.0310836
0.0311007
0.0312111
0.0312398
0.0312232
0.0311195
0.0310791
0.0311161
0.0311487
0.0312609
0.0312507
0.0312648
0.0314891
0.0331689
0.0591505
0.0611252
0.0330043
0.0312472
0.0309964
0.0309529
0.0309919
0.0309113
0.0308196
0.0307881
0.0308089
0.0307959
0.0308108
0.0309231
0.0309558
0.0309349
0.0308293
0.0307906
0.03083
0.0308617
0.0309798
0.0309717
0.0309916
0.0312343
0.0329209
0.0612678
0.0628176
0.0328483
0.0310897
0.0307642
0.0307207
0.0307452
0.0306579
0.0305599
0.0305283
0.0305492
0.0305352
0.0305478
0.0306619
0.0306973
0.0306736
0.0305647
0.0305281
0.0305708
0.0306048
0.0307328
0.0307371
0.0307613
0.031062
0.0328266
0.0629837
0.0648255
0.0330731
0.0311047
0.0306254
0.030539
0.0305426
0.0304361
0.030331
0.0302962
0.0303153
0.0303008
0.0303132
0.0304278
0.0304624
0.0304358
0.0303249
0.0302945
0.0303412
0.0303854
0.030528
0.0305568
0.0306348
0.0311185
0.0330766
0.0648789
0.0670933
0.0339372
0.0314265
0.0306427
0.0304569
0.0303954
0.0302589
0.0301389
0.0300965
0.0301118
0.0300971
0.0301052
0.0302224
0.0302587
0.0302297
0.0301127
0.0300909
0.0301459
0.0302072
0.0303776
0.030461
0.0306309
0.0313959
0.0338982
0.0673685
0.0736473
0.0362986
0.0320452
0.0308442
0.0304571
0.0303161
0.0301316
0.0299895
0.0299384
0.0299509
0.0299362
0.0299413
0.0300596
0.0300982
0.0300673
0.0299452
0.0299292
0.0299913
0.0300721
0.0302889
0.0304574
0.030813
0.0319495
0.0360159
0.074215
0.0829051
0.0384819
0.0327367
0.0311685
0.0305934
0.0303075
0.0300651
0.0299206
0.0298648
0.0298695
0.0298554
0.0298612
0.0299731
0.0300153
0.0299836
0.0298708
0.0298526
0.0299153
0.030009
0.0302667
0.0305703
0.0311438
0.032642
0.0381152
0.0835259
0.0907534
0.0441735
0.0346814
0.0320381
0.0309028
0.0304503
0.0301534
0.0299781
0.0299149
0.029908
0.0298929
0.0298983
0.029999
0.0300434
0.0300179
0.02993
0.0299087
0.0299712
0.0301095
0.0303868
0.0308615
0.0319613
0.0344452
0.0433382
0.0894324
0.095043
0.0546975
0.0405122
0.0335553
0.0320155
0.0310187
0.0304887
0.0302713
0.0301815
0.0301584
0.0301401
0.0301468
0.0302313
0.0302751
0.0302598
0.0302022
0.0301903
0.0302708
0.0304666
0.0309813
0.0319388
0.0333403
0.0399652
0.0535054
0.094326
0.0866418
0.0684157
0.0525209
0.0421184
0.0346626
0.032164
0.0315897
0.0310996
0.0309153
0.0308461
0.0308064
0.0308064
0.0308771
0.0309178
0.0309234
0.0309107
0.0309592
0.0311472
0.0316295
0.0322662
0.0350944
0.0419558
0.0513596
0.0678383
0.0866455
0.0795358
0.0657164
0.0586644
0.0677732
0.0429025
0.0380419
0.0342821
0.0331372
0.0327651
0.0326735
0.0326568
0.0326783
0.0327577
0.0327905
0.0327847
0.0327578
0.0328334
0.0333189
0.0347551
0.0392216
0.0449563
0.0668498
0.0580684
0.0656577
0.0816513
0.075369
0.0644657
0.0571791
0.0621572
0.0563373
0.0570746
0.0457515
0.0411282
0.0397887
0.0390706
0.0388947
0.0389016
0.0390208
0.0390355
0.0389849
0.039138
0.0399212
0.0414895
0.0468962
0.0584885
0.056334
0.0622224
0.056724
0.0640942
0.0748638
0.0674649
0.0623314
0.0555329
0.0595984
0.0577565
0.0599333
0.0572937
0.0556663
0.0582001
0.0577249
0.0562434
0.0558042
0.0560498
0.0558739
0.0557627
0.057644
0.0596881
0.0566137
0.0582354
0.0605726
0.0573733
0.059761
0.0548832
0.0615896
0.066875
0.0634197
0.0599126
0.0548395
0.0588082
0.0604894
0.0650787
0.074851
0.0892361
0.086003
0.0789951
0.0755289
0.0737954
0.0735228
0.0741391
0.0756458
0.0785631
0.085782
0.0911233
0.0768428
0.0657495
0.0605366
0.0590206
0.0538923
0.0587518
0.0633954
0.0582503
0.0574241
0.0587419
0.0631429
0.0653132
0.0693456
0.0790985
0.0925706
0.0826126
0.0743953
0.0713275
0.0699547
0.0699958
0.0705126
0.0716737
0.0746101
0.0825551
0.0916868
0.0801042
0.0704484
0.0669962
0.0645514
0.0582203
0.0564695
0.057951
0.0516798
0.0585949
0.0640058
0.0700182
0.070954
0.0678215
0.0721
0.081437
0.0801546
0.0740632
0.0696646
0.0673608
0.0671309
0.0676164
0.0692555
0.0732508
0.079518
0.0815678
0.073131
0.0682609
0.0725873
0.0723912
0.0647392
0.0586739
0.0523351
0.0488456
0.0633153
0.0689991
0.0714617
0.0690837
0.0648878
0.0665336
0.0740775
0.0770352
0.0729967
0.0676877
0.0643724
0.0638208
0.0646836
0.0673586
0.0721175
0.0763501
0.0740901
0.0670819
0.0654359
0.070691
0.073034
0.0694217
0.0633524
0.0483197
0.0618568
0.0650286
0.0641789
0.0665409
0.0645577
0.0612858
0.0625239
0.0692645
0.0738837
0.0708796
0.0650621
0.0611695
0.0604526
0.061721
0.0651234
0.0701788
0.0731278
0.0692018
0.0629021
0.0618402
0.0660912
0.0679781
0.0648723
0.0659943
0.0607533
0.0846948
0.078165
0.0623313
0.0620348
0.0608141
0.0581904
0.0594032
0.0656468
0.0708772
0.0682241
0.0621454
0.057979
0.0571183
0.0586094
0.0623706
0.0675756
0.0700747
0.0656591
0.0597824
0.0585948
0.0621519
0.0632863
0.0633358
0.0829008
0.0860739
0.0986438
0.0867922
0.0610522
0.0586952
0.0574185
0.0553917
0.0566911
0.0627748
0.0680453
0.0653849
0.0592156
0.0549602
0.053986
0.0555057
0.0593883
0.0647166
0.0672417
0.0628612
0.0570456
0.0555784
0.0583572
0.0598233
0.0620455
0.0912939
0.101631
0.109599
0.0887835
0.0593775
0.0562496
0.0544116
0.0529712
0.0543751
0.0602893
0.0653813
0.0624281
0.0561926
0.052094
0.0511763
0.052729
0.0565763
0.0619184
0.0645751
0.0602333
0.0546431
0.0531779
0.0552271
0.0574429
0.0607804
0.0915067
0.11162
0.11641
0.0891674
0.0583235
0.0545762
0.052077
0.0509626
0.0525502
0.0581081
0.0627021
0.0596891
0.0535461
0.0496086
0.0487248
0.0502652
0.0540644
0.0593525
0.0619185
0.0578953
0.0527055
0.0511793
0.052788
0.0556126
0.0598018
0.0917602
0.11909
0.123795
0.0902394
0.0577653
0.0530382
0.0503549
0.0494075
0.0511068
0.0561819
0.0601449
0.0571084
0.0512373
0.0474663
0.0465879
0.048083
0.0517269
0.0567653
0.0592525
0.0557989
0.0511553
0.0495727
0.0509113
0.0538849
0.0586762
0.0908328
0.127103
0.13089
0.0895813
0.0570703
0.0516785
0.0490853
0.0482204
0.0499996
0.0544908
0.0575985
0.0545643
0.0490725
0.0455685
0.044729
0.0462021
0.0497158
0.0545383
0.0569264
0.0539799
0.049841
0.048301
0.0496012
0.052499
0.0579514
0.0907611
0.132823
0.136125
0.0897847
0.0567206
0.0506039
0.0481824
0.0473871
0.0490464
0.0529601
0.0553429
0.0523085
0.0472169
0.0439324
0.0431012
0.0445208
0.0478261
0.05233
0.0546741
0.0523463
0.0487844
0.0473602
0.0485771
0.0512366
0.0573308
0.0911718
0.139352
0.142384
0.0903753
0.0564637
0.0497325
0.0474207
0.0467858
0.0482677
0.0515894
0.0532735
0.0502995
0.0455649
0.0424764
0.0416569
0.0429919
0.0460462
0.0502403
0.0525759
0.0508938
0.0479059
0.0466348
0.0476347
0.0501793
0.0568851
0.0909762
0.145369
0.148618
0.0904103
0.056269
0.0489731
0.0467271
0.0463303
0.047653
0.050276
0.0511722
0.0482156
0.0439445
0.0411433
0.0403658
0.0416816
0.0445418
0.0484376
0.0507321
0.0495885
0.0471453
0.0460327
0.0468467
0.0494299
0.0569145
0.0924948
0.149822
0.151479
0.0901794
0.0563976
0.0485269
0.0461595
0.0458238
0.0470221
0.0490763
0.049366
0.0464864
0.0425475
0.0399507
0.0391938
0.0404503
0.0430601
0.046672
0.0489654
0.0483988
0.0464805
0.0454611
0.0461639
0.0488795
0.0569323
0.0925558
0.1547
0.154712
0.0909458
0.0566907
0.048458
0.0456422
0.0453241
0.0464069
0.0479322
0.0477397
0.0449014
0.0412889
0.0388809
0.0381383
0.0393392
0.0417269
0.0450423
0.0473358
0.0472632
0.0458332
0.0449188
0.0455586
0.0486734
0.0572175
0.0924938
0.157594
0.15849
0.0905586
0.0572797
0.048563
0.0452691
0.0448638
0.0457578
0.0467928
0.0461509
0.0434073
0.0400817
0.0378814
0.0371732
0.0383479
0.0405558
0.0436801
0.04593
0.0462018
0.0451636
0.0443909
0.0451101
0.0487097
0.0578994
0.0930416
0.160431
0.160736
0.090615
0.0579176
0.0490041
0.0451238
0.0444684
0.0450924
0.0457459
0.044775
0.0420974
0.0390457
0.0370006
0.0363036
0.037435
0.0394656
0.0423306
0.0445543
0.0451796
0.0445176
0.0439653
0.0449463
0.0490613
0.0586318
0.0924767
0.163457
0.163179
0.0915863
0.058025
0.0495938
0.0452704
0.0440877
0.0444128
0.0447452
0.043556
0.0409708
0.0381049
0.0361939
0.0355112
0.036599
0.0384743
0.0411791
0.0433468
0.0441909
0.043841
0.0435773
0.0450862
0.0496892
0.0589076
0.0923044
0.165412
0.165842
0.0913512
0.0578802
0.0502902
0.0456836
0.0438268
0.0437904
0.0437525
0.0423786
0.0398587
0.0372219
0.035456
0.0347985
0.0358746
0.0376239
0.0401449
0.0422795
0.0432961
0.0432442
0.0433249
0.0454792
0.0505832
0.0588838
0.0930025
0.167532
0.167339
0.0919352
0.0578036
0.0515249
0.0463008
0.0437368
0.0432371
0.0428567
0.0413508
0.0389468
0.0364546
0.0347881
0.0341448
0.035185
0.0368077
0.039199
0.04125
0.0424107
0.0427226
0.0432398
0.0460778
0.0518811
0.058541
0.0930328
0.169572
0.169185
0.0926471
0.0577868
0.0524701
0.0472832
0.0438757
0.0428091
0.0420703
0.0404291
0.0380887
0.0357608
0.0341905
0.0335596
0.0345715
0.0360758
0.0382997
0.0403186
0.0416368
0.0422972
0.0434132
0.0471777
0.0528484
0.0580911
0.0936487
0.170735
0.171118
0.092751
0.0571947
0.0525034
0.0483257
0.0442066
0.0425325
0.0413524
0.0395613
0.0373028
0.0350989
0.0336224
0.0330186
0.0340133
0.0354279
0.0375548
0.0395121
0.0409512
0.0420193
0.0437468
0.0483602
0.0530242
0.0575688
0.0947886
0.172168
0.17217
0.0936744
0.0564923
0.0524602
0.0500357
0.044838
0.0424934
0.0408144
0.0388437
0.0366125
0.0345234
0.0331216
0.0325273
0.0334917
0.0348127
0.0368173
0.03877
0.0404162
0.0419472
0.044433
0.0501239
0.0527905
0.0568013
0.0952307
0.173722
0.173315
0.0951612
0.0561605
0.0521693
0.0511518
0.0457764
0.0425682
0.0405107
0.0382756
0.0360349
0.0340038
0.0326538
0.0320716
0.0329985
0.0342561
0.0361969
0.0381686
0.0400828
0.0420284
0.0455115
0.0513233
0.0523071
0.0562121
0.0962016
0.174596
0.174508
0.0960967
0.0556175
0.05153
0.0512309
0.0471253
0.0428108
0.0403512
0.0378434
0.0355125
0.0335201
0.0322247
0.0316561
0.0325713
0.0337756
0.0357005
0.0377611
0.0399463
0.0423909
0.0471915
0.0512545
0.0517331
0.05631
0.0979269
0.175639
0.175046
0.0974456
0.0554498
0.0508478
0.0508638
0.0488445
0.0435254
0.0403395
0.0376552
0.035147
0.0331179
0.0318318
0.0312686
0.0321613
0.0333427
0.035281
0.0375297
0.0399272
0.0431658
0.0488373
0.0507776
0.0510477
0.0559703
0.0988045
0.176579
0.175689
0.0993054
0.0560389
0.0503558
0.0502644
0.0496074
0.044907
0.0405438
0.0375617
0.0349423
0.0328236
0.0314973
0.0309279
0.0318101
0.0330186
0.0350353
0.0374245
0.0401479
0.0447345
0.0495003
0.0500065
0.050494
0.0561299
0.0998993
0.177172
0.176535
0.100229
0.0560203
0.0498589
0.0495235
0.0492896
0.0470119
0.0411814
0.0375751
0.0348899
0.0326799
0.0312491
0.0306557
0.0315602
0.0328505
0.0349897
0.0374899
0.0410185
0.0468837
0.0490827
0.049192
0.0501204
0.0569164
0.101391
0.177817
0.176869
0.101478
0.0568038
0.0495974
0.0488125
0.048796
0.048225
0.0428599
0.0378632
0.0348985
0.0326651
0.0311464
0.0304779
0.0314472
0.0327977
0.0349732
0.0377858
0.0427038
0.0478858
0.0484877
0.0485248
0.049807
0.0573151
0.1022
0.178554
0.177111
0.102993
0.0579265
0.0495709
0.0482706
0.0481495
0.0478825
0.0452709
0.0389435
0.0350403
0.0326741
0.0311266
0.0304049
0.031422
0.0327954
0.035101
0.0388807
0.0451252
0.0475619
0.0478351
0.0480285
0.0496958
0.0579544
0.103198
0.178722
0.176717
0.10355
0.0584497
0.0495366
0.0478196
0.0474659
0.0474217
0.0465693
0.0411086
0.035508
0.0327368
0.0311358
0.0304113
0.031431
0.0328881
0.0357338
0.0413014
0.0463314
0.0471154
0.0472756
0.0476852
0.0498224
0.059043
0.10442
0.177999
0.174712
0.103716
0.0591008
0.0496069
0.0474979
0.046916
0.0468331
0.0463084
0.0436158
0.036969
0.033015
0.0311824
0.0304471
0.0314676
0.0331741
0.0373119
0.0436101
0.0460552
0.0465538
0.0468051
0.04743
0.0498703
0.0595568
0.10447
0.176005
0.168447
0.102213
0.059702
0.0496751
0.0472684
0.0464987
0.0462249
0.045905
0.0447059
0.0397172
0.0339693
0.0313867
0.0305883
0.0316476
0.0341774
0.0399847
0.044357
0.0456224
0.0459835
0.046421
0.0472471
0.0498756
0.0599091
0.102678
0.16981
0.0811896
0.286717
0.415247
0.477314
0.507738
0.537321
0.558469
0.561123
0.567019
0.578994
0.589901
0.595871
0.599412
0.60078
0.599633
0.5973
0.595574
0.594499
0.592865
0.589967
0.587207
0.584117
0.575585
0.562066
0.543435
0.516094
0.47356
0.405851
0.297622
0.129298
0.0889975
0.35572
0.485065
0.540656
0.57367
0.596929
0.590785
0.580864
0.575757
0.583365
0.591086
0.595365
0.598442
0.600135
0.598946
0.595727
0.592963
0.591039
0.588964
0.585692
0.582818
0.58034
0.572335
0.557496
0.537058
0.507819
0.463446
0.394293
0.287041
0.12768
0.0986154
0.364423
0.487061
0.540215
0.576886
0.592179
0.583369
0.574337
0.567809
0.571318
0.580484
0.586617
0.591298
0.593989
0.593056
0.589376
0.586199
0.584115
0.582107
0.57893
0.576277
0.57379
0.566529
0.550484
0.528283
0.49709
0.450926
0.380703
0.275327
0.126114
0.106508
0.3554
0.474799
0.53014
0.561063
0.563574
0.558137
0.556789
0.554396
0.557086
0.564758
0.57261
0.57906
0.583417
0.583494
0.579833
0.576332
0.574286
0.572561
0.569816
0.567536
0.564821
0.558264
0.541205
0.517455
0.484555
0.436879
0.366345
0.263949
0.124374
0.112819
0.342807
0.459488
0.511599
0.527831
0.521424
0.51947
0.528304
0.537582
0.540169
0.545517
0.554548
0.562394
0.568261
0.569633
0.566591
0.56302
0.561395
0.56027
0.558153
0.556284
0.553481
0.547311
0.529572
0.504556
0.470212
0.421371
0.351262
0.252471
0.122352
0.11992
0.335595
0.443963
0.484607
0.483948
0.472678
0.474555
0.49129
0.512991
0.519925
0.524354
0.533315
0.542421
0.549772
0.552375
0.550446
0.547158
0.546096
0.545516
0.543943
0.542396
0.53943
0.533114
0.514755
0.488743
0.453539
0.404384
0.335041
0.240291
0.119903
0.127867
0.334032
0.426863
0.448853
0.436276
0.42489
0.430258
0.450421
0.478282
0.494449
0.50125
0.511677
0.520319
0.528725
0.532512
0.532234
0.52964
0.529035
0.528719
0.527191
0.525329
0.521928
0.514803
0.496621
0.470248
0.434853
0.385934
0.318826
0.229315
0.117831
0.135592
0.335735
0.405855
0.410137
0.394694
0.386968
0.391353
0.409903
0.439357
0.463687
0.474787
0.487563
0.497106
0.5063
0.511366
0.512673
0.511314
0.511096
0.510972
0.509208
0.506776
0.502929
0.495352
0.477618
0.451188
0.416089
0.368443
0.304263
0.219849
0.115999
0.143584
0.336373
0.382006
0.377979
0.367496
0.363465
0.364564
0.375198
0.400671
0.431714
0.445582
0.460738
0.47233
0.483289
0.491336
0.492453
0.49247
0.492599
0.492616
0.490712
0.488189
0.484343
0.476485
0.459332
0.433137
0.398481
0.352114
0.290557
0.210849
0.114268
0.151562
0.332334
0.361842
0.361996
0.360401
0.360355
0.355195
0.354182
0.367563
0.39477
0.414705
0.432935
0.446632
0.459825
0.471386
0.474057
0.473453
0.473823
0.473728
0.471869
0.469582
0.465648
0.457377
0.440738
0.415062
0.381132
0.336243
0.277392
0.202478
0.112589
0.158987
0.324841
0.355011
0.370592
0.382388
0.38435
0.369357
0.351187
0.346174
0.361464
0.384846
0.405512
0.420841
0.435955
0.451367
0.456188
0.454583
0.455044
0.454576
0.452928
0.450909
0.446769
0.43806
0.42184
0.396895
0.363932
0.32072
0.264697
0.194514
0.110977
0.165733
0.32203
0.372098
0.416212
0.447114
0.446497
0.41372
0.370886
0.341759
0.337917
0.357807
0.379414
0.395857
0.412755
0.431532
0.4386
0.436651
0.436529
0.435542
0.434179
0.432284
0.427867
0.418765
0.402869
0.378789
0.347001
0.305646
0.252575
0.187134
0.109419
0.172623
0.330881
0.426524
0.519665
0.576343
0.559745
0.502657
0.41521
0.357331
0.328274
0.33377
0.354673
0.372041
0.391007
0.412569
0.421834
0.420373
0.4185
0.417032
0.415858
0.41397
0.409208
0.399748
0.384103
0.36093
0.330424
0.291038
0.241023
0.180161
0.107878
0.180436
0.360899
0.535758
0.678646
0.702913
0.658118
0.594386
0.489288
0.390731
0.3325
0.317993
0.333325
0.349508
0.370284
0.394738
0.406539
0.404985
0.401191
0.399405
0.398167
0.396171
0.391057
0.38124
0.365804
0.343485
0.314266
0.276878
0.229962
0.173434
0.106289
0.190973
0.426861
0.701304
0.788164
0.770236
0.704891
0.653022
0.557071
0.433096
0.347438
0.311796
0.315054
0.329198
0.351184
0.378401
0.392669
0.390863
0.385308
0.382705
0.38132
0.379068
0.373591
0.363421
0.348142
0.326562
0.298568
0.26316
0.219332
0.166927
0.104639
0.205402
0.541778
0.837521
0.844899
0.788705
0.713382
0.673723
0.601678
0.472217
0.365705
0.311865
0.302075
0.311922
0.334509
0.362126
0.380127
0.378476
0.371245
0.367404
0.365527
0.362768
0.356893
0.346445
0.3312
0.310265
0.283446
0.250037
0.209237
0.160851
0.102985
0.224343
0.686907
0.928891
0.872028
0.781887
0.702844
0.656556
0.618358
0.494543
0.38089
0.314297
0.293349
0.29896
0.320367
0.346887
0.369047
0.36815
0.358718
0.35341
0.350766
0.347353
0.341026
0.330345
0.315073
0.294723
0.269118
0.237748
0.199892
0.155291
0.101397
0.247044
0.824238
0.994905
0.895401
0.782676
0.693944
0.637742
0.614945
0.499473
0.381873
0.316095
0.288064
0.289912
0.308859
0.333539
0.360992
0.360247
0.347919
0.340676
0.337038
0.332868
0.325972
0.31504
0.299799
0.280079
0.255788
0.226437
0.191362
0.150182
0.0998966
0.272144
0.941578
1.0568
0.925017
0.794525
0.694827
0.628586
0.603598
0.501279
0.377676
0.315322
0.285244
0.28541
0.301137
0.323897
0.353838
0.355727
0.339561
0.329418
0.324284
0.319234
0.311701
0.300514
0.285442
0.266437
0.243521
0.216088
0.183567
0.145492
0.0984602
0.299155
1.04528
1.12057
0.96663
0.818522
0.704042
0.627471
0.591875
0.505496
0.383768
0.314392
0.287773
0.285511
0.29815
0.318064
0.344163
0.356124
0.334611
0.319445
0.312543
0.306495
0.298348
0.286871
0.27206
0.25381
0.232198
0.206576
0.176399
0.141223
0.0970785
0.32932
1.14364
1.18377
1.02244
0.852943
0.720294
0.634856
0.590315
0.506273
0.393526
0.321871
0.295801
0.290084
0.299175
0.315541
0.336981
0.362373
0.335935
0.311966
0.302059
0.294533
0.285825
0.274167
0.259498
0.242092
0.22174
0.197873
0.1698
0.13735
0.0957712
0.362873
1.24251
1.25249
1.08876
0.90055
0.746377
0.650568
0.594561
0.515189
0.403526
0.336385
0.307981
0.29852
0.303189
0.316089
0.333671
0.356778
0.345436
0.309275
0.292895
0.283446
0.274051
0.262422
0.247953
0.231458
0.212314
0.190027
0.16375
0.133834
0.0945663
0.41787
1.29478
1.30519
1.16316
0.964519
0.786957
0.675548
0.606089
0.530107
0.419418
0.351931
0.322104
0.30905
0.309136
0.31921
0.332401
0.348657
0.36156
0.314233
0.286436
0.27363
0.262951
0.251703
0.237697
0.222029
0.203987
0.183069
0.15837
0.130596
0.0934499
0.443009
1.34723
1.35796
1.25645
1.05333
0.846114
0.711835
0.629439
0.548738
0.439242
0.366174
0.335084
0.320289
0.316574
0.322425
0.331897
0.341544
0.35861
0.327868
0.284806
0.265446
0.253556
0.241848
0.228569
0.213646
0.196641
0.176945
0.153659
0.127664
0.0924192
0.454235
1.23863
1.40622
1.37696
1.17247
0.927157
0.762565
0.662896
0.572885
0.464235
0.381314
0.349714
0.333836
0.326151
0.326388
0.331588
0.335665
0.348403
0.345338
0.29033
0.260479
0.245857
0.233075
0.220062
0.206144
0.190134
0.171548
0.149518
0.125138
0.0914721
0.129517
0.298714
0.407139
0.474918
0.517432
0.544755
0.563258
0.576182
0.583872
0.586915
0.589585
0.592267
0.59382
0.59501
0.596833
0.599163
0.60001
0.598178
0.594415
0.588349
0.577248
0.566062
0.562926
0.56463
0.546359
0.51868
0.487043
0.426083
0.297604
0.0837743
0.127916
0.288168
0.395664
0.464898
0.50923
0.538434
0.558661
0.572664
0.579912
0.5825
0.585261
0.588225
0.590189
0.592237
0.595107
0.598322
0.599124
0.59687
0.593473
0.588866
0.580165
0.574416
0.581893
0.589217
0.594283
0.571705
0.537899
0.48321
0.354765
0.0898367
0.126349
0.276433
0.382097
0.45241
0.498521
0.529653
0.551572
0.56657
0.573286
0.575871
0.578426
0.581217
0.583089
0.585258
0.588493
0.592122
0.592599
0.589348
0.584411
0.577838
0.568657
0.566055
0.573911
0.578766
0.586402
0.57132
0.535443
0.482142
0.359977
0.0993112
0.124608
0.265026
0.36776
0.438357
0.485988
0.518813
0.542241
0.558092
0.564353
0.567043
0.569276
0.571594
0.57311
0.575208
0.578763
0.582268
0.581629
0.57667
0.570004
0.561663
0.554516
0.552356
0.551762
0.550925
0.555758
0.553285
0.524244
0.469357
0.350971
0.107443
0.122594
0.253559
0.352697
0.422908
0.471694
0.505931
0.530587
0.547065
0.553002
0.555702
0.557578
0.559281
0.560131
0.561755
0.565361
0.56811
0.566114
0.559652
0.551287
0.541939
0.537535
0.535517
0.520841
0.510787
0.512295
0.519143
0.504438
0.453603
0.338708
0.113944
0.120159
0.241397
0.336555
0.405995
0.455061
0.490147
0.51579
0.532845
0.53892
0.541752
0.543349
0.54455
0.544832
0.545869
0.549096
0.550607
0.547383
0.539598
0.530505
0.521364
0.516851
0.506803
0.482694
0.465544
0.463434
0.47469
0.476508
0.437571
0.331873
0.121028
0.118089
0.230437
0.320392
0.387621
0.436423
0.47166
0.497605
0.514619
0.521427
0.524704
0.526605
0.527807
0.527828
0.528432
0.530826
0.530527
0.526245
0.517482
0.508909
0.498123
0.490842
0.47051
0.441604
0.421942
0.416615
0.428213
0.440693
0.420204
0.330485
0.128538
0.116242
0.220928
0.305784
0.370133
0.417732
0.452677
0.478616
0.495336
0.502733
0.50638
0.508742
0.510146
0.509973
0.510245
0.511154
0.509632
0.503832
0.494215
0.484718
0.471577
0.460808
0.431099
0.401821
0.385016
0.3809
0.389161
0.403193
0.399145
0.331808
0.136112
0.114492
0.211872
0.292006
0.353725
0.400069
0.434559
0.460228
0.476543
0.4843
0.488001
0.490439
0.491919
0.491608
0.491568
0.491507
0.489729
0.480892
0.469432
0.45793
0.442224
0.425717
0.39321
0.369777
0.3613
0.360728
0.364659
0.373639
0.376532
0.33239
0.144068
0.112795
0.203438
0.278754
0.33777
0.382651
0.4164
0.441544
0.457528
0.465734
0.469535
0.471787
0.473216
0.472991
0.472738
0.473401
0.469929
0.457438
0.443754
0.430331
0.411348
0.388666
0.362496
0.352204
0.355502
0.361601
0.36127
0.36104
0.358492
0.328502
0.152009
0.111161
0.195391
0.265961
0.322161
0.365381
0.398153
0.422601
0.438316
0.446967
0.451004
0.453009
0.454233
0.454391
0.454006
0.455757
0.450038
0.433392
0.418176
0.40309
0.382569
0.356954
0.344763
0.353191
0.374313
0.390735
0.388647
0.374286
0.354987
0.322035
0.159315
0.10958
0.187914
0.253722
0.306992
0.348369
0.379978
0.403631
0.419125
0.428167
0.432508
0.434361
0.435386
0.436093
0.436566
0.438344
0.430276
0.410756
0.393582
0.37704
0.354238
0.336399
0.34461
0.377867
0.42617
0.461563
0.462038
0.426582
0.376621
0.32105
0.166284
0.108016
0.180851
0.242056
0.292294
0.331721
0.362073
0.384903
0.400212
0.409603
0.414278
0.416126
0.417034
0.418357
0.420566
0.421782
0.411414
0.389254
0.369981
0.352659
0.331488
0.33031
0.365256
0.429751
0.524149
0.581355
0.599703
0.538903
0.437247
0.332719
0.173228
0.106399
0.174038
0.230885
0.278043
0.315498
0.344591
0.366656
0.381809
0.391531
0.396545
0.398474
0.399578
0.401325
0.405392
0.406608
0.393802
0.368714
0.347594
0.331573
0.318338
0.338406
0.403841
0.511632
0.614281
0.674828
0.721187
0.69799
0.554
0.367084
0.181364
0.104715
0.167435
0.220151
0.264228
0.299737
0.327639
0.34903
0.364082
0.374091
0.379471
0.381709
0.383132
0.385806
0.391507
0.392763
0.377172
0.349731
0.327477
0.314591
0.314899
0.356882
0.450375
0.579031
0.670965
0.718111
0.783496
0.802695
0.721642
0.439613
0.192588
0.10303
0.161261
0.209933
0.25099
0.284543
0.311309
0.332105
0.347167
0.357381
0.363202
0.36594
0.367947
0.371959
0.37941
0.379986
0.360416
0.333229
0.31075
0.303084
0.316935
0.377803
0.491317
0.621996
0.683229
0.725869
0.800573
0.85813
0.853961
0.561043
0.207934
0.101414
0.155615
0.20045
0.23857
0.270123
0.295726
0.315974
0.331081
0.341544
0.347834
0.351205
0.353934
0.359614
0.369208
0.368555
0.345035
0.318717
0.297977
0.295376
0.32122
0.393942
0.512491
0.633007
0.661918
0.71385
0.796091
0.886865
0.943949
0.708229
0.227596
0.0998931
0.150429
0.191799
0.227131
0.256679
0.28103
0.300693
0.315781
0.326538
0.333362
0.337484
0.34126
0.349031
0.361378
0.360225
0.331893
0.307333
0.289401
0.290612
0.32315
0.39337
0.515844
0.625592
0.644543
0.706021
0.800048
0.914306
1.01149
0.844307
0.250953
0.0984426
0.14562
0.183924
0.21669
0.244304
0.267326
0.286303
0.301245
0.312331
0.319739
0.324726
0.330026
0.340889
0.356712
0.351275
0.322585
0.29991
0.285136
0.287474
0.321283
0.388978
0.517755
0.61323
0.637403
0.70792
0.813902
0.948031
1.07624
0.95995
0.276149
0.0970428
0.14123
0.176704
0.207106
0.232915
0.254648
0.272875
0.287569
0.298954
0.306932
0.312963
0.320154
0.336206
0.357312
0.341445
0.316829
0.297134
0.28542
0.289701
0.319073
0.395135
0.521496
0.60217
0.637382
0.717595
0.839237
0.992816
1.14273
1.06338
0.302707
0.0957139
0.137309
0.170072
0.198329
0.222375
0.24286
0.260285
0.274822
0.286361
0.294899
0.302492
0.312985
0.337802
0.360667
0.334767
0.314313
0.298135
0.289958
0.297433
0.326468
0.40362
0.521393
0.601043
0.645662
0.733774
0.875402
1.05156
1.20889
1.16167
0.332783
0.0944978
0.133834
0.164018
0.19041
0.212825
0.232097
0.248657
0.263048
0.274573
0.283854
0.293403
0.310781
0.347505
0.353586
0.331447
0.314952
0.302065
0.298213
0.309289
0.340393
0.413137
0.529672
0.605439
0.661942
0.761607
0.924647
1.12148
1.28064
1.25995
0.366316
0.093391
0.130661
0.158597
0.183365
0.204374
0.222528
0.238278
0.252237
0.26346
0.274165
0.287318
0.316438
0.360689
0.345502
0.330201
0.317532
0.308047
0.308718
0.322685
0.355387
0.429669
0.544582
0.618122
0.6877
0.804005
0.990981
1.19795
1.33718
1.3134
0.418152
0.0923632
0.127751
0.153851
0.177181
0.196944
0.214058
0.229055
0.242271
0.254066
0.266138
0.286175
0.330339
0.355215
0.338672
0.329665
0.320319
0.315378
0.319775
0.336101
0.370275
0.450893
0.562847
0.642292
0.725423
0.864945
1.08127
1.29159
1.39205
1.3675
0.442774
0.0914215
0.125168
0.149708
0.171772
0.190419
0.206506
0.2205
0.233522
0.24632
0.261338
0.292498
0.345392
0.345086
0.3335
0.329648
0.324479
0.324956
0.334311
0.351828
0.387015
0.476926
0.586463
0.676052
0.777835
0.948553
1.20247
1.41182
1.43608
1.2571
0.454373
0.183107
0.182042
0.180123
0.178652
0.177551
0.176446
0.175585
0.174645
0.173787
0.17282
0.171955
0.170905
0.169927
0.168779
0.167587
0.166346
0.164948
0.163532
0.161995
0.160397
0.158749
0.157082
0.155394
0.153671
0.15194
0.150218
0.14851
0.146788
0.145021
0.143213
0.141415
0.139657
0.13797
0.136311
0.134652
0.132958
0.131212
0.129422
0.127648
0.125859
0.12394
0.121865
0.119709
0.11812
0.116745
0.11531
0.113859
0.112446
0.111064
0.109771
0.108634
0.107707
0.107044
0.106617
0.106439
0.106468
0.106594
0.106805
0.10728
0.10802
0.10939
0.11147
0.114261
0.117898
0.121116
0.123886
0.126167
0.127969
0.129169
0.129986
0.130509
0.130935
0.131465
0.131923
0.132167
0.132137
0.131759
0.13094
0.129797
0.128649
0.127553
0.126562
0.125711
0.125021
0.12453
0.124307
0.124223
0.124046
0.123676
0.123112
0.122395
0.121606
0.120757
0.119783
0.118641
0.117309
0.115767
0.113964
0.111796
0.109051
0.105221
0.100079
0.0941297
0.0889503
0.0858794
0.0839929
0.0829775
0.0825075
0.0823514
0.0823716
0.0825135
0.0827331
0.0830107
0.0833489
0.083709
0.084168
0.0846944
0.0852751
0.085797
0.0864501
0.0871602
0.0879147
0.0887357
0.0896389
0.0905767
0.252583
0.251808
0.249723
0.248213
0.247401
0.246795
0.24626
0.245777
0.245218
0.244904
0.24479
0.245193
0.24582
0.247239
0.248896
0.25115
0.254178
0.257473
0.261553
0.265749
0.27017
0.274322
0.278169
0.281803
0.285532
0.289718
0.294725
0.300264
0.305992
0.311634
0.317445
0.323748
0.331159
0.339103
0.347261
0.35502
0.361707
0.366594
0.369596
0.370777
0.369861
0.366089
0.360731
0.354786
0.348468
0.33989
0.328464
0.314428
0.298524
0.281722
0.264467
0.248214
0.234029
0.221613
0.211041
0.201749
0.194032
0.188422
0.185452
0.186481
0.193047
0.20328
0.210576
0.214546
0.218033
0.221431
0.22485
0.228099
0.231257
0.234414
0.237326
0.239599
0.241492
0.242912
0.244314
0.246068
0.246839
0.246339
0.244994
0.243078
0.240699
0.237908
0.234804
0.231493
0.228056
0.22454
0.220903
0.217118
0.213203
0.20922
0.205193
0.200995
0.196723
0.192602
0.188628
0.184762
0.181021
0.177395
0.173821
0.170185
0.166564
0.162682
0.157937
0.149983
0.138091
0.125085
0.11585
0.11103
0.108835
0.108113
0.107972
0.108096
0.10839
0.108816
0.10926
0.10991
0.110912
0.112352
0.113488
0.114437
0.115645
0.117107
0.118866
0.120846
0.122927
0.263323
0.265178
0.265142
0.265891
0.267261
0.268584
0.270111
0.271873
0.273931
0.276349
0.279341
0.282947
0.287133
0.292123
0.297213
0.302809
0.308565
0.31436
0.320339
0.326505
0.333054
0.340111
0.347921
0.356437
0.365935
0.377265
0.391551
0.409724
0.431335
0.454805
0.478756
0.502974
0.528534
0.553269
0.574581
0.592872
0.608653
0.621074
0.629535
0.632486
0.631625
0.628411
0.623589
0.616652
0.60854
0.597274
0.581819
0.560809
0.53431
0.502499
0.466267
0.43001
0.394975
0.362267
0.333682
0.310188
0.291747
0.278112
0.272034
0.274987
0.277472
0.27508
0.272223
0.270017
0.269078
0.268839
0.269006
0.269292
0.269949
0.271102
0.272023
0.27268
0.272972
0.272727
0.272612
0.272293
0.271894
0.270887
0.269415
0.267412
0.264741
0.261533
0.257954
0.254138
0.250149
0.246001
0.241722
0.237396
0.23306
0.228707
0.224401
0.220302
0.216268
0.212057
0.207979
0.204133
0.200532
0.19723
0.19423
0.19129
0.188538
0.186224
0.183856
0.181433
0.178637
0.173895
0.163807
0.148078
0.135777
0.129198
0.126278
0.125292
0.125075
0.125229
0.125587
0.126262
0.127467
0.129272
0.13103
0.132731
0.134803
0.137077
0.139684
0.14271
0.146064
0.265071
0.268633
0.270404
0.272886
0.275544
0.278356
0.281567
0.285172
0.289317
0.293803
0.298924
0.304696
0.31099
0.317857