/*--------------------------------*- C++ -*----------------------------------*\
| =========                 |                                                 |
| \\      /  F ield         | OpenFOAM: The Open Source CFD Toolbox           |
|  \\    /   O peration     | Version:  2112                                  |
|   \\  /    A nd           | Website:  www.openfoam.com                      |
|    \\/     M anipulation  |                                                 |
\*---------------------------------------------------------------------------*/
FoamFile
{
    version     2.0;
    format      ascii;
    arch        "LSB;label=32;scalar=64";
    class       volScalarField;
    location    "0.005";
    object      T;
}
// * * * * * * * * * * * * * * * * * * * * * * * * * * * * * * * * * * * * * //

dimensions      [0 0 0 1 0 0 0];

internalField   nonuniform List<scalar> 
13875
(
1412.04
1535.58
1482.5
1487.38
1481.92
1483.85
1484.41
1484.44
1483.84
1484.54
1483.97
1484.25
1483.57
1484.03
1483.79
1483.62
1484.04
1484.2
1484.38
1483.7
1481.74
1487.82
1480.65
1532.74
1397.56
1307.05
1356.19
1319.07
1322.15
1317.47
1318.4
1321.74
1323.36
1323.34
1323.88
1323.18
1322.8
1318.16
1317.82
1318.26
1322.56
1323.31
1323.06
1322.07
1318.27
1316.63
1322.03
1319.64
1356.25
1304.38
1307.27
1340.05
1314.33
1311.54
1304.67
1305.39
1304.89
1304.34
1304.32
1304.68
1304.34
1305.32
1303.9
1304.15
1304
1305.72
1305.79
1305.99
1305.71
1305.44
1304.85
1311.24
1311.53
1336.63
1297.69
1317.4
1344.8
1314.76
1308.5
1305.7
1305.79
1303.94
1303.23
1302.57
1302.92
1302.45
1303.13
1303.99
1304.19
1304.11
1303.5
1302.79
1303.76
1304.49
1305.32
1305.38
1307.94
1314.1
1343.78
1311.43
1329.55
1342.1
1315.72
1312.23
1304.11
1305.21
1304.37
1303.42
1302.7
1302.99
1302.62
1303
1303.85
1304.35
1304.01
1303.42
1302.86
1304.39
1305.56
1306.17
1304.82
1311.93
1312.24
1338.47
1315.69
1332.23
1351.13
1318.88
1309.62
1307.27
1306.5
1304.02
1303.24
1302.62
1303.18
1302.81
1303.21
1304.17
1304.62
1304.49
1303.66
1303
1304.08
1304.89
1306.22
1307.24
1308.7
1319.08
1349.12
1326.31
1339.01
1360.44
1329.08
1317.34
1307.14
1307.03
1305.31
1304.1
1303.32
1303.65
1303.25
1303.28
1304.35
1305.08
1304.57
1303.71
1303.53
1304.96
1306.47
1308.23
1307.99
1318.09
1326.12
1358.41
1321.81
1359.79
1384.69
1344.01
1320.76
1315.64
1310.11
1306.3
1304.66
1303.95
1304.51
1304.11
1304.24
1305.19
1305.97
1305.65
1304.44
1304.34
1305.42
1306.65
1310.07
1314.6
1320.56
1341.38
1381.14
1350.84
1537.29
1508.41
1387.14
1351.05
1321.75
1316.12
1310.6
1307.63
1306.24
1306.43
1305.93
1305.97
1306.66
1307.68
1307.11
1306.1
1306.53
1307.89
1309.9
1315.54
1321.99
1350.44
1384.2
1507.84
1523.27
1835.92
1574.76
1427.54
1358.98
1338.07
1321.32
1314.59
1311.54
1310.08
1310.18
1309.59
1309.47
1310.02
1311
1310.74
1309.86
1310.25
1312.45
1315.19
1321.59
1335.16
1356.31
1423.98
1566.68
1828.61
2510.46
1804.5
1520.19
1419.87
1352.07
1333.39
1327.79
1320.44
1318.03
1317.76
1316.85
1316.43
1316.62
1317.69
1317.95
1317.6
1317.92
1320.67
1328.4
1332.95
1350.94
1406.98
1509.11
1807.27
2443.8
2814.88
2298.85
1750.03
1468.12
1415.94
1369.33
1344.97
1338.03
1334.44
1333.65
1332.16
1331.34
1331.28
1332.18
1332.95
1333.6
1334.43
1338.39
1345
1375.38
1412.13
1458.42
1716.33
2286.99
2834.11
2790.98
2667.17
2385.46
2244.59
1545.39
1426.58
1412.58
1388.48
1378.95
1374.47
1370.64
1368.61
1368.11
1368.97
1371.12
1374.99
1379.97
1391.91
1413.92
1435.38
1580.36
2275.99
2332.45
2685.69
2783.65
2714.98
2653.3
2768.21
2760.92
2041.73
1929.81
1565.62
1527.98
1511.03
1500.65
1495.21
1492.89
1492.53
1493.16
1495.49
1501.91
1512.37
1534.3
1591.14
2018.71
2114.99
2777.43
2779.74
2694.01
2696.33
2611.94
2679.76
2718.48
2722.23
2684.11
2448.94
2196.67
2094.68
2024.63
1939.35
1901.8
1887.11
1883.54
1885.25
1895.53
1935.62
2026.9
2073.57
2163.14
2530.48
2707.24
2742.75
2735.6
2667.85
2642.48
2490.05
2538.88
2686.27
2749.69
2766.31
2824.18
2973.78
3210.72
3401.46
3488.95
3613.94
3655.32
3661.62
3659.65
3629.22
3509.04
3360.2
3253.77
3010.41
2859.8
2762.86
2752.59
2703.14
2561.58
2524.42
2366.28
2457.48
2517.76
2570.39
2718.33
2836.42
3099
3435.52
3540.62
3564.48
3578.4
3586.91
3591.26
3588.38
3578.96
3568.92
3562.54
3475.41
3133.42
2873.17
2752.73
2601.5
2536.11
2462.57
2383.15
2063.98
2195
2487.1
2795.68
2861.47
2991.38
3165.15
3431.44
3528.95
3558.94
3554.13
3550.1
3551.75
3551.49
3551.02
3553.87
3538.63
3440.42
3177.21
2966.48
2844.01
2762.47
2432.49
2180.15
2062.29
1902.51
1977.52
2118.4
2509.15
2807.5
2965.56
3014
3187.8
3341.47
3408.31
3407.56
3383.16
3379.53
3379.92
3391.46
3395.62
3368.04
3244.95
3051.1
2988.4
2870.58
2542.23
2094.28
1993.09
1904.73
2091.54
2111.87
2163.89
2378.19
2660.11
2741.43
2770.45
2939.95
3154.63
3290.84
3316.08
3299.86
3293.49
3296.89
3301.77
3288.69
3190.89
2984.28
2783.72
2767.9
2659.1
2370.94
2177.24
2129.9
2133.47
3473.8
2577.99
2148.55
2247.44
2464.88
2546.19
2599.44
2759.03
3000.5
3169.25
3224.19
3215.6
3214
3213.98
3214.15
3163.11
3015.1
2773.81
2591.46
2555.21
2458.01
2224.42
2150.39
2691.61
3628.11
3482.68
2390.15
1980.21
2066.49
2286.77
2380.05
2461.84
2622.35
2864.77
3053.54
3117.54
3124.14
3122.59
3122.48
3104.26
3036.69
2868.99
2626.89
2451.42
2377.12
2280.59
2038.48
2008.67
2509.46
3649.71
3417.08
2328.79
1927.09
1963.64
2143.5
2249.02
2351.3
2512.65
2743.4
2923.61
3005.9
3016.62
3022.13
3013.8
2994.3
2910.84
2742.34
2516.9
2336.47
2241.88
2148.49
1930.51
1955.7
2360.21
3501.34
3245
2248.44
1939.11
1906.74
2045.76
2145.7
2255.29
2418.84
2641.97
2814.87
2887.2
2911.42
2915.31
2910.09
2876.56
2798.98
2640.52
2422.34
2244.5
2132.67
2051.47
1869.57
1946.74
2247.3
3240.65
3105.57
2183.8
1961.35
1881.64
1982.39
2069.99
2173.13
2339.37
2546.28
2699.7
2780.41
2800.36
2809.99
2798.74
2770.34
2685.61
2535.46
2334.67
2155.33
2058.18
1998.23
1867.56
1945.3
2224.23
3168.63
3079.7
2236.03
1972.43
1876.68
1940.27
2007.4
2103.44
2262.82
2458.25
2604.88
2671.51
2700.48
2706.11
2700.55
2663.73
2590.26
2455.74
2267.29
2095.5
1990.67
1951.78
1866.94
1946.02
2194.2
3074.64
3009.24
2196.97
1966.46
1885.98
1922.52
1961.15
2044.28
2203.67
2380.21
2502.85
2579.95
2598.99
2608.78
2597.52
2572.89
2492.53
2371.23
2205.75
2034.27
1947.8
1934.47
1885.96
1951.79
2182.28
3020.74
2954.54
2212.52
1977.59
1892.39
1902.9
1917.41
1998.44
2149.06
2308.99
2427.62
2485.44
2511.85
2515.17
2510.48
2476.87
2412.9
2302.5
2153.36
1995.36
1900.81
1906
1880.33
1947.83
2199.56
3007.17
2951.11
2215.76
1969.79
1891.82
1893.94
1891.56
1954.96
2099.49
2239.18
2336.6
2405.47
2420.62
2429.42
2418.98
2401.21
2329.94
2233.2
2108.59
1958.79
1883.22
1897.86
1892.72
1953.77
2182.28
2948.82
2960.14
2238.88
1981.22
1895.16
1873.69
1862.47
1930.57
2059.63
2180.15
2277.26
2323.12
2345.47
2346.75
2342.26
2314.54
2264.36
2174.78
2065.84
1936.97
1853.69
1876.35
1882.45
1956.72
2227.67
2954.04
2889.91
2225.83
1965.83
1901.4
1854.06
1852.46
1907.39
2024.64
2126.71
2198.88
2255.78
2264.18
2271.36
2261.33
2249.42
2189.37
2114.54
2025.22
1910.79
1850.04
1860.66
1895.9
1970.39
2237.32
2933.1
2878.86
2226.15
1993.98
1908.96
1837.93
1825.88
1887.78
1990.35
2075.62
2150.87
2182.4
2198.99
2198.93
2196.95
2174.73
2139.37
2071.7
1995.95
1895.56
1822.92
1845.35
1902.32
1975.42
2232.86
2892.62
2843.94
2221.6
2007.47
1899.09
1836.3
1818.69
1872.43
1959.25
2035.3
2083.19
2126.17
2128.5
2134.52
2126.03
2119.57
2072.36
2021.81
1958.34
1879.19
1818.95
1846.23
1907.78
2003.65
2226.98
2867.07
2805.39
2207.82
2050.66
1926.19
1836.4
1792.6
1858.97
1935.31
1993.23
2048.09
2063.91
2074.26
2072.73
2072.17
2055.68
2035.63
1987.04
1930.46
1862.72
1790.68
1838.57
1921.4
2042.96
2217.95
2840.72
2795.69
2215.88
2060.92
1920.38
1847.27
1791.08
1844.01
1905.76
1957.51
1986.57
2016.98
2014.39
2018.9
2012.4
2011.92
1976.98
1944.91
1902.67
1854.68
1798.6
1857.19
1930.52
2070.67
2199.94
2799.57
2771.31
2200.93
2057.81
1951.43
1845.75
1779.5
1829.48
1886.95
1923.68
1960.55
1964.76
1970.57
1967.47
1968.02
1957.4
1949.44
1916.99
1875.39
1832.76
1783.53
1849.73
1961.39
2068.94
2187.4
2790.1
2735.54
2181.98
2054.19
1967.59
1864.3
1797.85
1824.94
1860.07
1892.01
1907.5
1926.12
1919.41
1923.06
1917.3
1921.79
1897.41
1880.22
1851.23
1830.7
1804
1867.85
1985.22
2062.99
2171.71
2762.64
2719.68
2165.89
2051.63
2030.75
1876.71
1800.96
1807.65
1842.94
1860.2
1886.83
1881.99
1884.14
1880.16
1882.28
1876.44
1877.56
1856.18
1827.85
1809.17
1813.72
1872.24
2052.49
2054.83
2156.49
2724.16
2698.02
2156.4
2036.9
2017.69
1897.27
1832.85
1817.77
1822.29
1832.51
1838.41
1849.59
1840.51
1844
1839.05
1845.9
1830.05
1822.38
1813.15
1824.63
1845.04
1905.96
2039.23
2034.68
2151.18
2702.37
2663.91
2136.92
2007.41
2021.21
1938.9
1840.7
1821.99
1811.6
1808
1825.82
1812.58
1812.22
1807.85
1810.97
1807.5
1817.46
1802.82
1793.8
1806.9
1854.76
1947.94
2039.42
2001.73
2145.93
2673.27
2645.89
2135.27
1978.55
2001.68
2001.85
1884.09
1840.87
1803.95
1787.76
1780.99
1784.96
1774.62
1777.64
1773.63
1781.73
1772.97
1777.95
1794.13
1846.84
1882.71
2020.28
2018.25
1972.75
2129.62
2645.18
2614.96
2124.67
1955.71
1992.61
2003.33
1901.21
1843.4
1805.55
1773.41
1777.26
1755.48
1752.56
1747.21
1750.84
1750.72
1771.69
1768.63
1787.97
1841.53
1929.56
2017.87
1998.79
1952.08
2129.21
2618.73
2590.71
2115.69
1937.29
1950.19
1990.62
1967.88
1873.35
1818.25
1772.42
1738.28
1732.47
1720.04
1721.85
1718.9
1729.47
1729.94
1760.22
1806.21
1882.6
1989.32
1998.02
1959.92
1936
2121.69
2598.13
2557.92
2109.97
1924.81
1927.71
1976.36
2018.38
1893.69
1823.89
1767.88
1753.1
1712.44
1703.26
1696.36
1702.22
1708.22
1750.08
1767.45
1803.45
1902.45
2035.37
1982.98
1938.71
1923.28
2103.48
2566.75
2541.49
2106.48
1919.19
1893.7
1944.46
2002.15
1953.75
1842.42
1784.21
1721.91
1699.32
1677.69
1676.8
1676.82
1696.34
1711.03
1776.98
1839.76
1980.35
2013.98
1935.52
1902.92
1918.89
2102.26
2549.64
2508.85
2084.23
1908.93
1881.83
1911
1990.48
2040.51
1869.08
1785.2
1756.54
1699.52
1673.31
1661.17
1672.32
1692.44
1754.86
1786.7
1856.94
2046.89
1995.7
1902.27
1892.17
1911.7
2086.43
2521.92
2495.12
2083.52
1909.62
1858.69
1878.21
1961.33
2017.2
1939.25
1816.31
1728.48
1697.65
1661.32
1653.76
1661.26
1692.69
1715.43
1813.33
1943.09
2027.18
1963.64
1869.99
1868.83
1907.4
2077.3
2507.68
2458.13
2062.08
1897.06
1859.02
1854.28
1919.43
2001.2
2030.33
1847.11
1773.51
1703.99
1674.14
1654.79
1674.27
1699.36
1773.23
1869.08
2029.03
2011.18
1919.85
1850.9
1873.57
1897.69
2062.73
2465.26
2423.02
2051.07
1891.68
1839.3
1836.88
1885.72
1980.76
2004.47
1945.56
1760.21
1708.97
1664.49
1657.65
1664.21
1707.05
1747.14
1971.39
2009.35
1991.49
1889.17
1832.34
1848.3
1889.88
2052.17
2434.33
2294.7
2001.95
1866.28
1840.48
1824.78
1847.05
1936.1
1994.48
2006.73
1861.3
1732.78
1685.55
1664.75
1685.81
1731.21
1857.36
2011.27
1996.05
1949.87
1855.07
1826.15
1850.78
1865.69
2001.33
2304.56
300.333
343.326
362.471
374.099
379.868
375.717
363.628
363.14
366.514
367.721
366.749
362.405
357.279
351.957
346.238
340.901
337.053
334.811
333.073
330.71
328.231
325.711
321.457
317.094
313.538
311.132
309.919
309.599
311.2
312.812
356.486
370.862
377.861
382.141
382.343
377.193
374.902
371.116
370.217
370.376
368.035
362.476
356.591
350.825
344.691
339.03
335.34
333.4
331.839
329.114
326.446
324.589
320.917
316.102
311.95
309.063
307.433
306.774
307.678
308.218
366.73
379.182
382.623
382.913
381.05
379.222
381.36
377.854
371.216
367.608
365.382
359.854
354.596
349.316
343.519
337.952
334.386
332.562
331.057
328.109
325.435
323.821
320.743
315.663
311.213
308.14
306.405
305.616
306.296
306.637
373.256
382.196
383.012
379.14
379.635
382.144
385.902
383.956
372.988
367.051
362.476
357.259
352.407
347.545
342.149
336.475
332.923
331.224
329.771
326.929
324.416
322.702
320.374
314.875
310.021
306.623
304.402
303.222
303.19
302.771
380.763
382.768
379.83
377.063
380.713
386.7
389.963
388.118
377.709
367.408
359.799
354.792
350.277
345.61
340.506
334.79
331.135
329.617
328.41
325.676
323.212
321.659
319.852
314.215
309.147
305.467
302.935
301.393
301.089
300.531
383.254
382.022
377.741
378.887
386.626
393.937
394.87
391.879
383.981
368.617
359.128
352.788
348.585
344.154
338.852
333.119
329.137
327.656
326.481
323.834
321.388
319.934
318.42
312.618
307.254
303.361
300.613
298.352
297.585
296.74
383.815
379.802
378.058
385.245
396.076
402.593
402.88
398.032
388.905
371.445
360.76
353.858
348.383
343.759
337.416
331.797
327.314
325.57
324.074
320.998
318.048
316.421
314.829
309.526
304.324
300.582
297.859
295.979
295.603
295.038
382.913
379.608
383.882
400.599
416.448
422.575
418.701
409.244
396.476
376.998
363.941
356.6
350.057
344.284
336.744
330.79
326.121
323.754
321.769
318.126
314.904
313.128
311.705
307.01
302.008
298.521
296.181
294.8
294.447
293.79
383.546
382.225
400.151
429.535
454.515
463.818
453.759
430.785
410.376
390.902
368.958
360.493
353.131
346.281
338.515
330.376
325.767
322.381
319.882
315.667
312.531
310.944
309.508
305.478
300.728
297.458
295.342
294.12
293.801
293.151
386.272
392.109
436.393
488.181
533.7
549.555
525.571
474.951
435.114
406.674
377.416
366.097
357.314
349.512
341.654
332.396
325.982
321.706
318.383
313.796
310.897
309.327
307.783
304.323
299.867
296.832
294.91
293.734
293.242
292.361
391.476
414.578
504.665
606.07
695.634
718.357
667.969
557.922
479.264
430.631
393.751
374.343
362.48
353.269
345.569
335.67
326.682
321.71
317.192
312.561
309.76
308.137
306.394
303.341
299.239
296.486
294.712
293.555
292.961
291.986
401.732
458.239
638.97
841.487
1007.34
1028.28
936.381
709.517
555.376
469.607
419.867
386.144
368.949
357.75
350.11
339.508
328.182
322.332
316.506
311.955
308.989
307.324
305.286
302.459
298.777
296.332
294.663
293.505
292.838
291.748
419.699
534.607
890.339
1269.94
1339.68
1280.29
1206.11
963.355
680.82
530.878
450.771
401.29
377.067
364.085
355.799
344.02
331.246
323.449
316.462
311.799
308.583
306.799
304.399
301.702
298.424
296.283
294.678
293.493
292.755
291.541
448.077
667.729
1287.51
1507.02
1400.73
1308.12
1253.51
1157.56
859.322
618.107
492.727
422.037
386.642
371.719
362.99
349.698
334.947
324.835
317.011
311.903
308.511
306.462
303.724
301.108
298.119
296.198
294.541
293.255
292.348
290.886
492.587
893.972
1547.31
1525.57
1363.06
1245.24
1208.71
1181.56
1038.35
727.046
546.149
445.903
398.247
380.567
371.841
356.366
339.349
326.739
317.967
312.342
308.702
306.306
303.234
300.59
297.792
295.935
294.133
292.751
291.685
290.106
558.099
1192.43
1595.62
1481.49
1255.96
1126.43
1101.72
1134.72
1095.9
844.29
601.368
472.045
411.785
391.09
379.946
363.888
344.711
329.537
319.467
313.056
309.023
306.312
303.072
300.223
297.495
295.516
293.55
292.114
290.871
289.179
650.377
1432.02
1600.4
1429.67
1186.07
1035.68
990.843
1055.76
1083.72
919.747
646.05
494.877
427.086
401.992
387.561
372.219
350.895
332.822
321.05
313.856
309.363
306.3
303.03
299.796
297.207
295.049
292.963
291.488
290.062
288.231
763.572
1542.61
1601.78
1415.4
1166.54
992.785
920.247
974.511
1039.24
934.389
676.422
511.238
440.696
411.927
395.016
383.184
358.144
336.686
322.809
314.86
309.872
306.425
302.971
299.476
296.907
294.603
292.455
290.952
289.353
287.461
880.093
1594.4
1609.28
1414.03
1162.81
969.057
881.821
897.897
981.766
912.23
687.551
521.442
452.731
421.411
402.9
394.912
367.145
341.611
325.074
316.038
310.52
306.678
302.737
299.426
296.655
294.254
291.964
290.458
288.699
286.759
989.881
1629.38
1629.37
1438.22
1178.85
958.62
850.264
841.637
910.765
873.699
676.166
528.736
463.46
431.401
410.214
400.312
380.243
348.262
327.807
317.52
311.168
307.121
302.415
299.577
296.386
293.935
291.509
289.977
288.008
286.095
1088.57
1661.56
1657
1482.08
1215.02
957.19
824.701
795.308
832.902
823.683
659.257
532.287
472.564
439.936
415.723
404.58
402.847
358.142
332.36
319.75
311.825
307.719
302.332
299.576
296.053
293.605
291.169
289.6
287.471
285.568
1156.54
1694.68
1688.05
1525.44
1253.54
982.61
816.221
756.884
765.976
764.674
644.952
533.923
477.197
444.098
420.795
409.524
411.283
373.613
339.751
322.633
312.609
308.008
302.438
299.415
295.774
293.318
290.85
289.243
287.189
285.268
1344.35
1734.36
1706.39
1562.67
1298.85
1025.55
825.911
739.092
714.777
715.317
636.136
533.466
477.276
446.696
427.859
414.59
415.918
401.961
350.854
327.482
314.548
307.797
302.772
299.431
295.719
293.208
290.677
288.925
286.921
285.078
1361.32
1755.78
1735.99
1624.33
1376.67
1095.26
862.666
736.578
686.565
669.733
620.715
530.572
476.999
450.419
434.188
420.14
417.924
411.678
367.965
334.995
317.59
308.381
302.77
299.574
295.762
293.215
290.659
288.73
286.792
285.022
1391.49
1790.73
1767.71
1685.12
1460.29
1170.94
919.005
756.972
677.547
647.909
604.741
532.25
481.272
457.27
441.008
425.901
418.49
415.331
398.434
347.085
323.213
310.422
303.058
299.402
295.887
293.329
290.803
288.743
286.809
285.082
313.31
311.671
310.104
310.474
311.704
314.148
317.701
321.882
325.803
328.368
330.866
333.135
334.901
337.234
341.123
346.515
352.277
357.577
362.73
367.075
367.894
366.689
363.854
367.555
379.047
383.136
378.027
367.926
351.181
312.211
308.761
308.217
307.338
308.039
309.684
312.589
316.69
321.166
324.495
326.56
329.228
331.822
333.433
335.469
339.185
344.922
351.063
356.813
362.738
368.319
370.003
370.652
372.511
375.661
377.106
381.622
381.453
378.258
371.355
358.621
307.164
306.837
306.18
307.003
308.766
311.852
316.226
320.854
323.673
325.555
328.246
331.012
332.55
334.486
338.111
343.753
349.521
354.781
360.113
365.628
367.839
371.852
380.654
381.566
378.893
379.792
381.681
381.954
378.958
366.955
303.322
303.752
303.795
304.985
307.21
310.625
315.406
320.304
322.591
324.457
327.027
329.672
331.111
332.939
336.634
342.355
347.69
352.531
357.467
362.535
367.636
374.28
384.957
386.152
382.143
378.595
377.978
382.105
381.705
373.795
301.077
301.668
301.97
303.539
306.064
309.748
314.744
319.681
321.405
323.151
325.759
328.323
329.461
331.082
334.925
340.674
345.699
350.345
354.636
359.636
368.263
381.188
388.692
390.396
386.899
380.375
376.438
378.829
382.163
381.445
297.331
298.188
298.983
301.257
303.955
307.851
313.112
318.195
319.577
321.236
323.86
326.384
327.465
329.048
333.201
338.957
344.246
348.838
353.16
359.677
369.64
385.706
392.677
395.624
394.7
386.502
378.665
377.194
381.29
383.524
295.651
296.241
296.634
298.51
301.167
304.856
309.884
314.507
316.048
317.832
320.939
323.926
325.336
327.226
331.802
337.392
343.9
348.751
354.425
361.505
373.062
390.501
399.48
404.401
404.17
396.932
385.817
378.015
379.373
382.439
294.379
295.052
295.409
296.816
299.122
302.558
307.353
311.437
312.892
314.715
318.1
321.601
323.507
326.073
330.629
336.94
344.563
350.508
357.263
364.965
381.704
398.915
411.715
422.295
426.183
420.06
402.672
384.735
379.204
381.774
293.724
294.386
294.688
295.914
297.996
301.196
305.68
309.2
310.722
312.372
315.694
319.723
322.155
325.75
330.553
338.808
346.763
353.634
361.34
370.449
394.496
414.23
436.447
461.855
472.551
461.99
434.732
403.212
382.48
382.57
292.909
293.795
294.255
295.418
297.316
300.246
304.39
307.47
309.137
310.772
313.828
318.283
321.551
325.988
332.784
342.01
350.065
357.902
367.42
380.506
410.885
441.635
486.28
541.626
567.626
548.942
499.071
442.518
393.65
385.974
292.483
293.468
294.028
295.163
296.891
299.518
303.281
306.08
307.976
309.675
312.571
317.207
321.592
326.63
336.137
345.979
353.445
363.155
376.214
400.788
437.31
490.714
578.952
698.343
751.297
725.695
628.062
516.813
418.192
391.783
292.179
293.288
293.934
295.063
296.672
298.961
302.332
304.984
307.174
308.964
311.99
316.598
322.24
328.409
340.005
350.532
358.304
369.779
388.926
426.496
480.539
575.448
747.226
988.166
1079.46
1060.65
883.04
662.14
465.218
403.286
291.923
293.158
293.88
295.029
296.554
298.532
301.57
304.136
306.657
308.596
311.87
316.555
323.458
331.584
344.629
356.271
364.847
378.024
405.923
459.796
548.055
715.328
1020.1
1227.49
1295.45
1361.45
1321.41
927.971
546.973
422.702
291.193
292.688
293.598
294.848
296.421
298.183
300.994
303.508
306.323
308.523
311.986
317.116
324.89
335.298
350.399
363.686
372.663
387.93
428.053
505.975
643.346
910.192
1180.28
1257.45
1308.94
1404.69
1515.82
1328.88
689.588
452.762
290.297
291.929
293.027
294.388
296.129
297.829
300.493
303.077
306.147
308.68
312.504
318.142
327.069
339.757
357.142
372.268
381.748
400.059
453.675
563.405
762.265
1074.47
1188.81
1205
1239.63
1359.84
1526.68
1556.67
928.019
500.178
289.287
291.022
292.316
293.741
295.675
297.492
300.11
302.959
306.13
308.984
313.125
319.678
330.037
345.311
364.728
379.626
392.661
414.541
481.124
621.486
886.007
1111.91
1131.01
1090.04
1126.89
1256.6
1480.48
1598.57
1228.61
569.529
288.288
290.154
291.638
293.093
295.184
297.208
299.724
302.905
306.149
309.322
313.915
321.311
333.492
351.654
373.104
386.883
402.934
429.637
504.102
667.979
953.505
1090.29
1046.01
983.168
1040.37
1198.59
1435.86
1603.78
1452.2
666.28
287.475
289.419
291.056
292.554
294.698
296.906
299.406
302.851
306.342
309.877
314.9
323.148
337.522
359.001
384.431
394.227
412.603
443.277
520.18
698.969
958.785
1041.54
962.734
919.447
1000.61
1182.72
1425.13
1606.25
1553.49
781.82
286.776
288.739
290.541
292.051
294.301
296.654
299.315
302.605
306.672
310.589
316.095
325.464
342.638
368.184
394.202
402.215
421.773
455.202
528.889
707.568
930.624
980.367
889.169
883.112
978.425
1180.05
1425.95
1615.41
1600.95
895.784
286.053
287.971
289.986
291.536
293.966
296.414
299.45
302.287
307.073
311.21
317.618
328.367
349.536
382.542
399.279
409.456
431.362
465.801
535.734
691.718
888.219
905.827
836.912
850.745
968.815
1197.75
1453.74
1636.89
1635.23
1001.58
285.43
287.349
289.538
291.143
293.611
296.076
299.502
302.208
307.594
311.846
319.963
333.175
359.888
402.321
403.682
415.067
439.218
474.101
539.073
672.12
832.405
828.763
792.915
827.836
967.178
1234.72
1497.91
1665.02
1667.52
1100.18
285.121
287.046
289.174
290.834
293.293
295.758
299.355
302.329
307.964
312.716
322.986
340.813
376.596
409.173
408.138
420.706
443.25
477.657
540.166
655.644
769.244
763.133
757.812
820.777
995.61
1274.02
1542.87
1697.14
1699.81
1163.59
285.004
286.878
288.897
290.677
293.14
295.668
299.34
302.601
307.873
314.801
328.179
352.446
402.909
413.601
413.099
427.627
445.994
477.824
538.626
642.922
716.82
713.743
741.802
834.645
1041.37
1319.69
1579.82
1718
1736.91
1344.79
284.972
286.77
288.754
290.669
293.127
295.752
299.445
302.586
308.607
318.05
335.952
370.674
410.006
415.543
418.46
432.847
449.858
477.29
535.17
625.529
671.399
687.829
740.77
873.73
1110.44
1393.31
1638.35
1746.91
1759.05
1363.41
285.078
286.83
288.802
290.869
293.247
295.989
299.296
303.027
310.775
323.873
348.51
399.56
413.464
416.702
424.553
439.113
456.005
482.375
536.867
608.076
650.249
680.039
764.14
930.484
1185.37
1475.48
1695.02
1776.2
1792.75
1395.22
856.235
850.97
848.48
848.212
848.814
848.838
850.963
851.341
850.782
848.758
847.743
845.388
842.17
839.867
835.153
831.647
824.395
816.878
809.45
801.455
793.106
783.33
773.775
764.732
756.068
747.38
739.334
731.714
723.135
713.749
704.822
696.171
687.715
679.677
671.245
662.875
654.608
646.482
638.659
630.97
622.731
614.496
606.196
600.317
595.324
589.193
582.543
576.154
570.104
565.033
560.781
556.807
553.943
551.896
550.157
549.359
548.799
548.561
549.661
551.723
556.583
564.164
574.732
589.486
602.902
614.493
623.809
631.167
635.173
636.967
637.324
636.849
636.256
635.119
633.302
631.021
626.903
619.22
610.807
602.631
594.725
587.28
580.435
574.288
569.235
565.485
561.942
557.47
551.919
545.542
538.606
531.351
523.624
515.229
506.063
496.165
485.522
473.965
461.077
445.433
425.128
400.93
375.052
354.768
341.751
332.104
324.973
319.517
315.145
311.409
308.066
304.989
302.062
299.425
296.79
294.689
292.719
290.828
289.163
288.165
287.184
286.456
285.771
285.525
285.317
849.091
850.11
846.966
846.718
847.47
848.123
850.103
850.567
850.873
850.54
849.917
848.877
847.67
846.204
843.134
839.898
835.254
830.323
825.505
820.528
815.78
809.993
804.613
799.935
796.034
793.094
791.262
790.647
790.565
790.265
790.192
791.082
794.436
796.727
797.344
796.295
791.29
782.704
772.789
761.145
747.136
732.31
718.759
705.322
692.795
678.832
663.417
647.202
631.074
615.554
601.728
590.234
582.184
576.21
572.113
568.454
566.384
566.008
567.314
571.927
582.604
599.673
610.83
614.193
615.852
617.388
619.167
620.969
622.187
623.29
623.629
623.491
622.899
620.374
617.369
615.952
613.687
610.17
605.892
601
595.355
588.942
582.14
575.275
568.572
561.904
554.86
547.298
539.315
531.141
522.796
513.831
504.367
494.853
485.311
475.712
466.206
456.831
447.3
437.533
428.522
419.656
410.665
395.944
374.375
351.099
335.329
325.77
318.985
314.02
309.986
306.482
303.295
300.516
297.767
295.646
293.68
291.934
290.336
289.36
288.551
287.946
287.387
287.198
287.03
869.896
871.952
868.498
867.985
868.26
868.467
868.752
867.875
867.348
866.681
866.909
866.887
866.782
866.844
865.96
864.888
863.913
863.158
863.097
864.673
868.404
873.812
880.961
889.406
900.348
915.836
937.932
965.716
994.383
1018.57
1038.13
1057.03
1079.34
1099.08
1112.7
1119.47
1120.75
1118.56
1111.66
1096.12
1073.85
1046.6
1017.91
987.548
958.493
927.448
890.056
850.838
810.247
768.635
727.475
692.542
663.798
641.798
625.971
615.543
610.631
609.011
613.241
625.905
636.603
635.447
633.562
631.313
629.481
627.413
625.883
624.943
624.392
624.075
623.269
622.192
620.346
616.022
612.079
608.04
603.981
599.309
594.531
589.236
583.07
576.533
569.92
563.274
556.613
549.843
542.788
535.505
528.036
520.365
512.619
505.153
497.455
488.908
480.239
471.679
463.338
455.456
448.082
440.489
433.325
427.087
420.317
413.658
407.192
399.028
381.886
354.864
335.88
324.924
317.19
311.762
307.457
303.977
300.821
298.553
296.562
294.641
292.839
291.666
290.778
290
289.363
289.173
289.001
879.965
883.42
882.08
882.001
885.087
886.598
888.548
889.38
890.859
891.268
892.865
895.559
896.962
900.766
903.069
907.961
915.777
926.617
943.229
965.047
994.042
1030.29
1074.95
1125.44
1178.64
1233.19
1292.18
1357.9
1425.89
1482.68
1520.12
1542.66
1558.22
1567.24
1571.32
1564.86
1553.93
1541.26
1526.47
1508.05
1486.22
1460.36
1432.29
1402.06
1370.75
1338.21
1301.4
1262.25
1216.09
1158.67
1093.06
1010.82
917.646
835.031
770.952
728.762
702.617
691.59
689.273
680.741
671.818
664.377
657.971
653.444
650.135
646.748
643.707
641.35
639.456
638.343
637.498
636.229
633.334
628.665
623.556
618.251
612.946
607.65
602.165
595.994
589.035
581.456
573.705
566.032
558.502
551.056
543.61
536.223
529.059
522.24
515.365
508.247
501.423
494.626
486.913
479.039
471.168
463.532
456.334
449.698
443.382
437.293
431.519
425.925
420.272
414.656
408.521
400.718
387.404
358.343
337.226
325.236
316.952
311.322
306.801
303.383
300.913
298.856
296.871
295.175
294.003
293.089
292.324
291.753
291.278
884.808
895.06
897.463
902.566
910.61
913.653
917.634
919.912
924.787
927.649
933.191
940.728
946.544
958.855
971.918
994.812
1026.39
1070.62
1130.45
1204.9
1293.25
1395.09
1503.19
1603.09
1686.4
1743.98
1776.71
1796.67
1811.91
1817.35
1813.54
1808.89
1800.31
1789.09
1777.01
1762.63
1745.88
1728.93
1712.86
1697.36
1681.64
1664.9
1648.02
1630.96
1613.55
1595.72
1576.26
1556.72
1534.59
1507.08
1468.55
1419.14
1356.81
1282.41
1171.9
1053.49
941.43
852.124
786.045
745.859
719.706
700.456
687.988
679.355
673.804
668.837
664.872
661.735
659.095
657.367
657.136
657.031
654.529
649.335
642.982
636.657
630.392
624.351
617.747
610.48
603.077
595.16
586.792
578.29
569.828
561.443
553.054
544.925
537.124
529.639
522.608
515.596
507.984
500.571
493.786
487.138
480.517
473.954
467.359
460.623
453.711
446.906
440.442
434.451
428.952
423.657
418.312
413.035
407.459
400.816
390.722
362.862
338.967
325.564
316.82
310.969
307.093
304.209
301.646
299.447
297.396
295.735
294.896
294.16
293.609
898.851
918.923
924.815
936.614
946.869
951.691
959.114
964.017
971.178
979.984
988.862
1004.16
1022.09
1055.34
1100.62
1169.58
1263.5
1384.72
1536.1
1688.46
1814.69
1900.29
1946.62
1961.67
1960.9
1950.64
1936.33
1920.32
1905.13
1892.75
1878.27
1863.46
1849.28
1836.21
1824.73
1813.67
1800.89
1787.4
1773.84
1760.84
1748.7
1737.13
1726.42
1716.85
1709.64
1703.88
1702.1
1698.19
1692.47
1686.81
1679.66
1668.37
1658.45
1645.3
1622.13
1549.55
1375.39
1160.12
988.855
879.374
812.433
770.231
740.9
722.797
712.457
704.055
698.338
694.653
691.961
691.329
692.908
693.878
691.3
684.693
676.663
668.113
659.197
650.552
641.461
631.898
622.583
613.558
604.398
595.051
585.743
576.574
567.3
557.961
548.777
540.108
531.833
524.079
516.992
510.308
503.873
497.568
491.373
485.471
479.574
473.322
466.606
459.273
451.853
444.56
437.563
431.138
425.551
420.562
415.792
411.081
406.299
401.054
393.487
370.262
341.457
326.906
317.821
312.245
308.079
304.669
302.007
299.982
298.336
297.009
296.484
915.347
943.433
952.921
974.708
985.903
1000.17
1016.93
1032.38
1047.1
1068.27
1092.28
1128.68
1182.99
1266.37
1382.87
1538.78
1725.62
1902.16
2015.96
2057.16
2063.24
2055.01
2039.27
2020.94
2000.69
1978.95
1958.77
1945.12
1929.74
1914.78
1901.35
1888.88
1876.13
1863.01
1851.34
1841.86
1833.73
1825.05
1816.4
1807.64
1799.39
1792.24
1786.1
1780.56
1777.88
1778.84
1779.7
1780.61
1781.45
1786.37
1793.25
1804.59
1829.39
1860.69
1850.61
1810.83
1727.88
1562.23
1343.86
1142.84
1003.82
909.506
839.965
799.504
777.55
763.03
757.512
754.818
754.131
756.656
761.943
763.612
760.658
751.845
739.788
726.985
713.304
699.648
685.522
670.386
655.335
641.005
627.619
615.345
604.052
593.744
583.905
574.299
564.922
555.927
547.3
538.961
530.887
523.193
515.894
508.964
502.396
496.272
490.267
484.203
478.339
472.149
464.787
457.135
449.658
442.414
435.369
428.78
423.038
418.279
414.053
409.871
405.49
401.266
395.571
375.831
343.32
329.307
320.642
314.515
309.605
305.912
302.968
300.688
299.502
928.625
964.903
978.037
1010.47
1030.55
1062.29
1092.42
1130.19
1167.04
1223.09
1286.05
1376.58
1503.21
1668.44
1866.08
2038.33
2119.24
2138.44
2133.96
2116.15
2096.42
2076.75
2056.14
2035.66
2013.24
1997.37
1984.85
1971.84
1959.49
1948.74
1939.88
1931.78
1923.94
1915.61
1906.07
1897.52
1890.53
1885.02
1879.89
1875.03
1870.22
1866.52
1864.25
1862.6
1863.61
1864.19
1864.55
1864.71
1866.09
1872.4
1884.74
1906.84
1934.06
1943.91
1940.34
1922.16
1884.09
1816.56
1662.8
1463.75
1287.86
1138.05
1012.39
933.119
888.197
863.716
854.096
853.454
856.868