/*--------------------------------*- C++ -*----------------------------------*\
| =========                 |                                                 |
| \\      /  F ield         | OpenFOAM: The Open Source CFD Toolbox           |
|  \\    /   O peration     | Version:  2112                                  |
|   \\  /    A nd           | Website:  www.openfoam.com                      |
|    \\/     M anipulation  |                                                 |
\*---------------------------------------------------------------------------*/
FoamFile
{
    version     2.0;
    format      ascii;
    arch        "LSB;label=32;scalar=64";
    class       surfaceScalarField;
    location    "0.00692";
    object      phi;
}
// * * * * * * * * * * * * * * * * * * * * * * * * * * * * * * * * * * * * * //

dimensions      [1 0 -1 0 0 0 0];

oriented        oriented;

internalField   nonuniform List<scalar> 
27436
(
-0.533455
8.1928
-0.0932797
7.47165
-0.0849677
7.78729
-0.0697449
7.78639
-0.0645123
7.78941
-0.0487042
7.78379
-0.0411291
7.78941
-0.0342063
7.79035
-0.0239614
7.78792
-0.0157254
7.78899
-0.00899604
7.78987
0.000306079
7.78789
0.0141695
7.78322
0.0310703
7.78081
0.046265
7.78225
0.0549164
7.78825
0.0580402
7.79261
0.0658341
7.78972
0.0753259
7.7883
0.0895425
7.78252
0.0961935
7.78791
0.111729
7.78559
0.12374
7.78266
0.573374
7.46038
8.21657
-0.24721
8.44001
-0.0961839
7.32062
-0.0815852
7.77257
-0.0563954
7.7609
-0.0636294
7.79342
-0.0551703
7.76716
-0.037547
7.76886
-0.0283808
7.78146
-0.0212705
7.78025
-0.0107602
7.77887
0.00170725
7.77853
0.0158819
7.77389
0.0151825
7.78389
0.0216238
7.77435
0.0210662
7.78281
0.0376961
7.77163
0.0465812
7.78374
0.058975
7.77733
0.0823551
7.76492
0.0776913
7.78719
0.0722132
7.79337
0.102955
7.75485
0.114193
7.77111
0.268365
7.30775
8.48983
-0.227245
8.66726
-0.141188
7.23454
-0.120715
7.75192
-0.108017
7.74729
-0.105635
7.78989
-0.106675
7.76658
-0.0934671
7.75661
-0.0731857
7.75937
-0.0591131
7.76312
-0.0497084
7.76832
-0.0391799
7.76743
-0.0145552
7.74961
-0.0125827
7.78198
-0.0113639
7.77314
-0.0082363
7.77968
0.0127209
7.75066
0.0240978
7.77236
0.0472848
7.75418
0.0609255
7.75128
0.0594155
7.7887
0.0638992
7.78891
0.0786883
7.73998
0.100812
7.74896
0.19213
7.21765
8.67825
-0.169536
8.83681
-0.139505
7.20448
-0.134344
7.74657
-0.114191
7.72642
-0.115212
7.79024
-0.111116
7.76148
-0.0900835
7.73721
-0.0720818
7.74013
-0.0579176
7.74772
-0.043921
7.75366
-0.0291241
7.75158
-0.00714533
7.72762
0.00298552
7.77188
0.00488255
7.77125
0.0149682
7.76959
0.0353126
7.73034
0.0494831
7.75822
0.069698
7.73399
0.0885487
7.73239
0.0942447
7.78301
0.0944809
7.78871
0.118984
7.71542
0.11169
7.75645
0.162263
7.16633
8.83487
-0.0735836
8.91037
-0.0365523
7.16737
-0.0927185
7.80249
-0.0634557
7.69628
-0.0709835
7.79649
-0.0709639
7.75995
-0.0521295
7.71972
-0.035895
7.72258
-0.0250867
7.7365
-0.0146326
7.7425
-0.00163288
7.73775
0.0166096
7.70963
0.0268555
7.76176
0.0276747
7.77045
0.0370628
7.7602
0.0543758
7.71305
0.0645192
7.74811
0.0820586
7.71648
0.0969845
7.71745
0.101079
7.77892
0.0968927
7.79293
0.12487
7.68745
0.0903314
7.79114
0.0978001
7.15805
8.92998
0.118599
8.79176
0.0437959
7.24206
-0.0502382
7.89632
-0.0132963
7.6585
-0.032793
7.81523
-0.0383809
7.76765
-0.024973
7.70643
-0.012944
7.70969
-0.00660954
7.72859
-0.0020608
7.73732
0.00548488
7.72941
0.0193379
7.69591
0.0256641
7.75552
0.0248437
7.77132
0.0296766
7.75538
0.0421569
7.70058
0.0463975
7.7439
0.058389
7.7045
0.0684315
7.70738
0.0690881
7.77825
0.0524129
7.80964
0.0884671
7.65136
-0.0137318
7.8937
-0.0208101
7.165
8.91065
0.30466
8.48709
0.136126
7.41048
-0.006845
8.03914
0.0216978
7.62917
-0.0241557
7.86016
-0.0517782
7.79872
-0.0591753
7.71296
-0.0677793
7.71827
-0.0837034
7.74336
-0.0954646
7.74849
-0.112284
7.74544
-0.12026
7.70402
-0.130909
7.76628
-0.146581
7.78702
-0.158082
7.76687
-0.166479
7.70901
-0.184959
7.76241
-0.192995
7.71257
-0.207959
7.72233
-0.228627
7.79894
-0.262757
7.84382
-0.284693
7.6733
-0.354782
7.96416
-0.658239
7.46806
8.25507
0.873324
7.61379
0.521969
7.76178
0.410532
8.15039
0.331575
7.70762
0.265915
7.92588
0.223192
7.84525
0.19478
7.73939
0.170402
7.74167
0.14095
7.77207
0.114138
7.77455
0.0827767
7.77596
0.0611195
7.72553
0.0380783
7.78946
0.00653714
7.81857
-0.0193302
7.79275
-0.0446696
7.73437
-0.0743087
7.79209
-0.10072
7.73901
-0.130672
7.7523
-0.167089
7.8353
-0.228175
7.90492
-0.278989
7.72417
-0.406271
8.09179
-0.693557
7.75522
7.56527
0.592943
7.02095
0.41019
7.9446
0.237812
8.32273
0.187645
7.75678
0.127031
7.98824
0.0938511
7.87727
0.0864706
7.74627
0.0827899
7.7438
0.0774099
7.777
0.0757449
7.77544
0.0717226
7.77922
0.0709375
7.72613
0.0771728
7.78345
0.0766714
7.81911
0.0768259
7.79261
0.0721341
7.73909
0.0675134
7.79676
0.0630051
7.7436
0.0562605
7.75909
0.0294646
7.86213
-0.0266323
7.96105
-0.0465378
7.74415
-0.219251
8.26482
-0.372319
7.90845
7.19429
-3.05109
10.0722
-3.39157
8.28505
-2.76453
7.69517
-2.61878
7.61185
-2.30259
7.67584
-1.94158
7.51193
-1.64743
7.45109
-1.37141
7.46662
-1.08434
7.4899
-0.78098
7.47147
-0.49428
7.49186
-0.208538
7.44061
0.0977493
7.47761
0.403566
7.5134
0.694279
7.50201
0.966053
7.46738
1.26606
7.49683
1.54306
7.46664
1.83585
7.46633
2.19673
7.50122
2.50233
7.65538
2.65927
7.58726
3.23476
7.68947
2.95092
8.19269
10.144
-4.25795
14.3301
-4.36563
8.39211
-4.20013
7.5282
-3.90644
7.32044
-3.31935
7.09295
-2.79141
6.98301
-2.34933
7.0093
-1.92425
7.04028
-1.47049
7.03645
-1.02022
7.02086
-0.562094
7.03354
-0.121133
7.00027
0.340704
7.01642
0.812352
7.04199
1.25773
7.05679
1.6776
7.04758
2.13307
7.04145
2.57269
7.02719
3.02654
7.01262
3.57442
6.95344
4.1305
7.09918
4.44125
7.27648
4.61184
7.51854
4.56423
8.24051
14.7074
-2.75735
17.0871
-4.86336
10.4957
-4.98825
7.65118
-4.13863
6.47616
-3.61674
6.57705
-3.17331
6.54115
-2.70233
6.53854
-2.21835
6.55548
-1.71684
6.53575
-1.2246
6.52864
-0.72277
6.53216
-0.243634
6.522
0.257805
6.51585
0.762198
6.53802
1.25954
6.55965
1.71722
6.59006
2.20593
6.55302
2.69803
6.5355
3.19437
6.51661
3.66859
6.47917
4.24789
6.51973
5.0976
6.4265
4.71686
7.89871
2.77861
10.1785
17.4855
2.36419
14.7217
0.157628
12.701
-5.00111
12.8096
-3.89467
5.37347
-3.79798
6.4855
-3.30984
6.05514
-2.88467
6.11282
-2.37758
6.04759
-1.85132
6.01052
-1.33024
6.00833
-0.811494
6.01454
-0.307173
6.01874
0.211273
5.99846
0.741918
6.00805
1.26697
6.03493
1.79079
6.06658
2.28276
6.0615
2.76242
6.05646
3.2005
6.07937
3.75667
5.92369
3.98186
6.2947
5.09189
5.31528
-0.167868
13.1569
-2.39834
12.4086
15.0871
2.45346
12.265
3.52278
11.6306
3.48788
12.8476
-0.785962
9.65755
-3.59852
9.2973
-3.21353
5.66196
-2.98439
5.8818
-2.48447
5.54736
-1.94935
5.47643
-1.46411
5.52461
-0.975372
5.52757
-0.472613
5.51725
0.0260181
5.50095
0.531726
5.5033
1.03344
5.53394
1.52934
5.57135
2.0362
5.5552
2.49324
5.60021
2.61109
5.96251
2.95823
5.57558
-0.1003
9.3534
-4.19564
9.41329
-3.89036
12.8506
-2.95649
11.474
12.1301
1.88355
10.3785
3.88103
9.63361
5.72154
11.0093
4.9895
10.4001
4.07495
10.217
-1.24434
10.9932
-2.4331
7.07387
-2.08724
5.19954
-1.64719
5.03742
-1.15063
5.03036
-0.611442
4.99051
-0.0661021
4.97326
0.47219
4.9638
1.01029
4.96644
1.55555
4.98982
2.07295
5.05519
2.4829
5.14636
2.86136
5.22346
1.55519
7.27081
-3.6394
10.7758
-4.24523
9.95904
-4.81582
9.98458
-3.05365
11.0881
-1.34154
9.76128
10.788
1.05103
9.32522
2.12344
8.55984
3.94111
9.19227
4.87907
9.47034
5.08658
10.0141
5.85429
10.2314
2.73783
10.201
1.23661
6.69978
0.0908301
6.18839
-0.303
5.42602
-0.205887
4.89415
0.0566248
4.71102
0.383758
4.63671
0.680229
4.67023
0.857271
4.81353
0.676729
5.23728
-0.610646
6.43415
-2.29696
6.90952
-5.0617
10.0385
-4.29033
10.0041
-3.93113
9.59941
-3.46485
9.51944
-1.81935
9.44313
-0.723215
8.66546
10.0647
2.02452
7.30005
3.1849
7.3991
4.37862
8.00045
5.90513
7.94076
7.01912
8.90232
6.6428
10.6149
4.56547
12.2735
2.0113
9.25902
0.82463
7.3851
0.133188
6.13028
-0.0444349
5.08378
-0.0596526
4.73502
-0.00291407
4.58676
0.0279541
4.64633
-0.0930326
4.94117
-0.736327
5.88753
-2.20063
7.90446
-4.71724
9.42951
-6.73187
12.0635
-7.18628
10.4573
-6.45626
8.87071
-5.00307
8.06873
-3.71186
8.15341
-2.57471
7.52935
7.49032
2.51631
4.78329
4.09356
5.82127
4.53744
7.55594
4.17873
8.30752
4.2381
8.85002
3.79827
11.0507
3.75119
12.3048
2.1747
10.8264
1.2264
8.33497
0.723302
6.63769
0.354983
5.45738
0.00289393
5.09132
-0.365603
4.95849
-0.734501
5.01639
-1.14292
5.34912
-1.76946
6.51257
-2.83439
8.96631
-4.52503
11.1205
-5.59287
13.1373
-6.32342
11.1913
-5.80909
8.36069
-5.81808
8.07931
-4.92702
7.26371
-2.93648
5.53977
4.55513
3.17546
1.60824
6.29688
2.7005
8.46462
5.39161
7.93337
8.84673
6.11119
10.6762
5.63067
11.5373
5.49346
12.4413
4.88198
11.4288
4.07491
9.13209
3.10596
7.60065
1.89581
6.66512
0.779028
6.20626
-0.329247
6.06414
-1.48531
6.16867
-2.76387
6.62282
-3.93219
7.67421
-4.40213
9.42781
-4.7972
11.509
-4.26844
12.6104
-4.61772
11.5469
-6.9905
10.7371
-7.82165
8.91345
-5.81511
5.25882
-2.96348
2.68949
1.592
1.19524
0.412901
2.86553
1.03056
4.87708
3.38485
6.31757
7.41407
5.60126
11.3885
5.41852
11.722
5.45277
12.409
4.84783
12.0347
3.7361
10.2393
2.58843
8.74484
1.46111
7.79015
0.35652
7.30848
-0.754129
7.17217
-1.89406
7.30645
-3.11365
7.84044
-4.37317
8.93056
-5.44344
10.4927
-5.91223
11.9722
-5.74345
12.4409
-5.8825
11.6867
-6.70045
11.559
-4.92636
7.14152
-2.9171
3.25029
-1.20119
0.973172
0.390191
0.580827
-0.167375
0.811579
0.800371
0.937881
3.25927
1.24151
7.11662
2.3249
10.2989
3.0254
11.0213
3.50292
11.9337
3.32976
12.21
2.59856
10.9689
1.74612
9.59489
0.912323
8.62192
0.0822508
8.13675
-0.739697
7.99323
-1.60308
8.16956
-2.51442
8.75166
-3.43521
9.84994
-4.10723
11.1614
-4.13006
11.992
-3.48878
11.7981
-2.80408
11.0021
-1.63418
10.3917
-1.0675
6.57635
-0.844388
3.0291
-0.581021
0.709623
-0.192432
-0.177939
0.00977481
-0.332013
0.955538
-0.86129
3.79255
-0.671703
6.929
0.452913
9.16802
1.42041
10.0513
1.96408
11.3919
2.05302
12.1209
1.7316
11.2881
1.24127
10.0839
0.693291
9.16921
0.143825
8.68593
-0.411056
8.54874
-0.96313
8.72192
-1.51089
9.29942
-1.97147
10.3094
-2.20841
11.3957
-2.03737
11.8183
-1.36736
11.1263
-0.309182
9.94174
0.816205
9.26803
0.853612
6.53847
0.352236
3.53226
0.198949
0.863495
0.00869775
-0.670142
0.677393
-1.54523
1.83103
-1.84814
4.10055
-1.74268
6.82564
-0.824683
8.25
0.00978149
9.2156
0.492016
10.9092
0.781096
11.8287
0.842447
11.2248
0.717924
10.2094
0.490345
9.39822
0.209047
8.96796
-0.0754965
8.83392
-0.34417
8.99084
-0.537012
9.4927
-0.597515
10.37
-0.478995
11.276
-0.216923
11.5552
0.356169
10.5525
1.20884
9.0883
2.15672
8.32041
2.05222
6.64489
1.64785
3.93823
0.698311
1.81386
0.706365
-0.492311
1.16652
-1.65585
2.99293
-2.4855
4.93349
-2.50764
6.85075
-2.00426
7.74444
-1.56548
8.7733
-1.00741
10.3493
-0.478343
11.297
-0.135927
10.884
-0.000916094
10.0771
0.0110017
9.38687
-0.0455624
9.02397
-0.136039
8.92448
-0.192538
9.04745
-0.179047
9.4796
-0.0250631
10.2159
0.320657
10.9291
0.80826
11.0662
1.30904
10.0506
1.85442
8.53999
2.42595
7.74835
2.38379
6.68519
1.53748
4.78314
0.442897
2.90765
1.14675
-0.473378
1.63759
-1.53146
4.05003
-2.25319
5.65767
-2.38272
6.9815
-2.13484
7.49719
-1.88477
8.52157
-1.42683
9.8893
-0.89537
10.767
-0.466888
10.458
-0.213387
9.82469
-0.0998276
9.27238
-0.0625299
8.98549
-0.0283931
8.8906
0.0208822
8.99901
0.155557
9.34568
0.425971
9.94554
0.848483
10.506
1.36244
10.5507
1.75751
9.65607
2.04562
8.25209
2.34376
7.44763
2.12243
6.90777
1.4059
5.49971
0.421788
3.88869
1.56625
-0.381469
2.01876
-1.3099
4.97668
-2.09428
6.44355
-2.40319
7.2911
-2.38078
7.47347
-2.15662
8.29339
-1.75308
9.48527
-1.18048
10.1964
-0.683444
9.96106
-0.343174
9.48253
-0.138284
9.06545
0.0197382
8.82685
0.146706
8.76465
0.308996
8.83802
0.535701
9.11971
0.90662
9.57428
1.41196
9.99963
1.94438
10.0177
2.28033
9.31909
2.48313
8.04822
2.50972
7.42057
2.17556
7.24367
1.33149
6.3423
0.408617
4.8068
1.97385
-0.460324
2.48029
-1.44595
5.96073
-2.23805
7.23577
-2.54422
7.59721
-2.55863
7.48579
-2.44858
8.18072
-2.13282
9.17091
-1.629
9.69214
-1.13171
9.46283
-0.735954
9.0845
-0.445351
8.77422
-0.229874
8.61213
-0.0232221
8.55982
0.192631
8.62373
0.484464
8.82872
0.869179
9.1896
1.33512
9.53242
1.81639
9.53485
2.13197
9.00448
2.26509
7.9147
2.2554
7.4285
1.99325
7.50527
1.27752
7.05715
0.359431
5.72206
2.33343
-0.35229
2.83389
-1.22442
6.82973
-1.96429
7.97165
-2.18704
7.81802
-2.36499
7.661
-2.27069
8.08427
-1.96648
8.86468
-1.46667
9.19245
-0.993526
8.98797
-0.615427
8.70506
-0.318454
8.47811
-0.0550069
8.35048
0.180419
8.32619
0.445303
8.36025
0.753836
8.52055
1.15701
8.78583
1.63751
9.05109
2.09426
9.07698
2.34349
8.75426
2.40047
7.85732
2.23165
7.59745
1.97945
7.75775
1.19499
7.83946
0.364543
6.55041
2.69795
-0.277242
3.11129
-1.19167
7.73976
-1.90651
8.68364
-2.10243
8.01213
-2.23097
7.78893
-2.15865
8.00709
-1.89575
8.60345
-1.47049
8.76788
-1.02951
8.54634
-0.640017
8.3171
-0.301731
8.1419
-0.017816
8.06816
0.266391
8.04333
0.551176
8.07637
0.893685
8.17819
1.29
8.38922
1.72149
8.61785
2.13853
8.65845
2.37168
8.52115
2.43453
7.79245
2.32181
7.7092
2.13469
7.94478
1.40981
8.55905
0.409504
7.55251
3.11577
-0.524632
3.63786
-1.41248
8.62808
-2.04942
9.32048
-2.20242
8.16617
-2.41783
8.0025
-2.44078
8.02637
-2.22625
8.39057
-1.76391
8.30739
-1.31572
8.09879
-0.930209
7.9327
-0.609369
7.82275
-0.294799
7.75469
-0.00201369
7.75115
0.313427
7.76119
0.647281
7.84372
1.03806
7.99748
1.46751
8.187
1.86884
8.25464
2.08661
8.30337
2.07803
7.80111
1.90287
7.88192
1.75944
8.09021
1.13227
9.18221
0.349051
8.32851
3.48562
-0.408035
4.04915
-1.29956
9.51816
-1.91013
9.93015
-1.99366
8.24843
-2.02593
8.03296
-2.0183
8.01858
-1.80296
8.17891
-1.44963
7.95454
-1.07737
7.72791
-0.72052
7.57745
-0.376093
7.47955
-0.0737743
7.45262
0.240751
7.43665
0.546028
7.45564
0.887834
7.50121
1.25345
7.63059
1.62631
7.81237
1.99336
7.88488
2.18404
8.1122
2.1611
7.82362
2.11211
7.92912
1.95537
8.24618
1.49305
9.64371
0.508507
9.32312
3.99621
-0.395009
4.4457
-0.786169
9.90862
-1.59377
10.7339
-1.72765
8.38194
-1.8175
8.12095
-1.78565
7.98738
-1.64662
8.0428
-1.3101
7.61739
-0.970897
7.38947
-0.652553
7.25938
-0.365272
7.19219
-0.0630348
7.15016
0.223048
7.15016
0.52622
7.15194
0.825178
7.20093
1.16748
7.28635
1.51471
7.46294
1.8062
7.5909
1.92895
7.98865
1.95005
7.80204
1.91259
7.96322
1.95071
8.20787
1.14725
10.4429
0.451718
10.0118
4.4545
-0.644978
5.08926
-1.07045
10.3313
-1.83127
11.488
-1.96721
8.5163
-1.95442
8.10651
-1.88459
7.91912
-1.68668
7.84699
-1.40602
7.33472
-1.11613
7.09924
-0.823184
6.96677
-0.511095
6.87953
-0.230505
6.86898
0.0679973
6.85107
0.353619
6.86554
0.663562
6.88994
0.955114
6.99317
1.23617
7.17995
1.5235
7.29984
1.69122
7.81985
1.76618
7.72769
1.74911
7.97833
1.66635
8.28918
0.732697
11.3672
0.390823
10.3468
4.86386
-0.44684
5.53901
-0.712473
10.5939
-1.31575
12.093
-1.57706
8.77504
-1.65023
8.17708
-1.59457
7.86387
-1.45022
7.70349
-1.18248
7.0649
-0.889614
6.80498
-0.596233
6.67228
-0.341569
6.62403
-0.0577136
6.58419
0.208598
6.58398
0.489144
6.58415
0.747081
6.63067
1.04982
6.68836
1.34058
6.88635
1.59626
7.04175
1.73846
7.67724
1.75904
7.70612
1.73278
8.00149
1.44402
8.575
0.877511
11.9328
0.621587
10.5897
5.50937
-0.296905
5.8318
-0.393784
10.6892
-0.963163
12.6651
-1.50983
9.32331
-1.5753
8.2418
-1.48148
7.77181
-1.24756
7.46958
-1.03934
6.85386
-0.817346
6.58212
-0.589038
6.44294
-0.31714
6.35081
-0.0794262
6.34542
0.179461
6.32437
0.420009
6.34268
0.683915
6.3659
0.914037
6.45717
1.14273
6.65608
1.36664
6.81278
1.58569
7.45647
1.65077
7.64092
1.66374
7.98363
1.14894
9.08584
0.603884
12.4858
0.375053
10.8347
5.88421
-0.415568
6.2462
-0.619565
10.8931
-0.921993
12.9723
-1.58284
9.9779
-1.55709
8.21383
-1.49774
7.71102
-1.35978
7.32977
-1.12062
6.61222
-0.895739
6.35621
-0.644795
6.19027
-0.43405
6.13924
-0.186449
6.09658
0.0404194
6.09658
0.28527
6.0969
0.508591
6.1417
0.765005
6.19901
0.983692
6.43546
1.19019
6.60336
1.33693
7.30782
1.38667
7.59007
1.35869
8.00728
0.677776
9.75886
0.269644
12.888
0.228436
10.932
6.12358
-0.205943
6.45557
-0.26198
10.9466
-0.446171
13.1576
-1.2407
10.7666
-1.3786
8.3495
-1.3339
7.6658
-1.10385
7.09716
-0.888127
6.39451
-0.700163
6.16747
-0.511193
5.9994
-0.268628
5.8956
-0.059933
5.88661
0.174166
5.86172
0.386093
5.88414
0.617295
5.90998
0.810164
6.00552
1.00853
6.23597
1.24804
6.36094
1.45312
7.10076
1.49819
7.54413
1.40643
8.09336
0.634447
10.5191
0.521517
12.9958
0.405767
11.0741
6.52101
-0.0205617
6.47281
-0.00622103
10.9285
-0.0370465
13.1918
-0.75475
11.4782
-1.18325
8.77806
-1.10341
7.58357
-1.01129
7.00121
-0.836381
6.21912
-0.646365
5.97602
-0.436641
5.78827
-0.264101
5.72229
-0.0544497
5.67574
0.134054
5.67248
0.343306
5.67418
0.525063
5.72757
0.743359
5.78646
0.921499
6.05677
1.08983
6.19003
1.23525
6.95236
1.33652
7.44087
0.968046
8.45619
0.222277
11.2516
0.123587
13.0944
0.104382
11.0781
6.57926
-0.216568
6.68661
-0.368981
11.0808
-0.181133
13.0086
-0.705762
12.0052
-1.3169
9.38399
-1.21832
7.48216
-1.04827
6.82858
-0.857386
6.02805
-0.684018
5.80155
-0.531601
5.63494
-0.334336
5.52458
-0.161708
5.50222
0.0363184
5.47393
0.212496
5.49737
0.406173
5.53367
0.562843
5.62921
0.753275
5.86561
0.934556
6.00682
1.04983
6.83408
1.12783
7.35842
0.441121
9.13713
-0.224464
11.9196
-0.0395598
12.9297
0.0296371
10.9782
6.55267
-0.0504873
6.73312
-0.0934851
11.1233
0.171628
12.7456
-0.110164
12.2913
-0.859611
10.1265
-0.914873
7.5343
-0.844242
6.75535
-0.723609
5.90699
-0.571586
5.64761
-0.376728
5.43873
-0.221449
5.36916
-0.0382156
5.3182
0.128501
5.30668
0.310053
5.3152
0.471747
5.3714
0.673055
5.42727
0.815528
5.72234
0.950162
5.86905
1.06147
6.7194
1.02476
7.39244
0.306072
9.85135
-0.0100397
12.2358
0.26164
12.6638
0.196026
11.0039
6.78678
-0.00381211
6.73818
0.0376692
11.0803
0.321185
12.4661
0.321252
12.297
-0.488866
10.9316
-0.904063
7.94556
-0.727892
6.57617
-0.615866
5.79407
-0.484071
5.51282
-0.365706
5.3198
-0.196151
5.19966
-0.0469434
5.1683
0.118204
5.141
0.267673
5.16508
0.430757
5.20759
0.55699
5.30009
0.722405
5.55611
0.830562
5.75998
1.04983
6.49722
0.728743
7.70976
-0.0921955
10.6686
-0.213248
12.3567
0.0802218
12.3745
0.073641
11.0692
6.91728
-0.134674
6.87835
-0.130254
11.0769
0.0804406
12.2577
0.242657
12.1365
-0.264888
11.4395
-0.775885
8.4515
-0.780412
6.57875
-0.666009
5.67852
-0.573633
5.42101
-0.407118
5.15208
-0.275168
5.06727
-0.118844
5.011
0.0236563
4.99767
0.175221
5.01257
0.312515
5.06945
0.472614
5.13878
0.554067
5.47324
0.631941
5.6803
0.70649
6.41962
0.0730724
8.33782
-0.618742
11.36
-0.335614
12.0752
-0.149834
12.2048
-0.118026
11.0642
6.81765
-0.0553138
6.9412
-0.000996439
11.0265
0.202205
12.0517
0.579208
11.764
0.169838
11.852
-0.454067
9.07625
-0.630403
6.75507
-0.499524
5.54597
-0.405521
5.32375
-0.314245
5.0594
-0.169858
4.92215
-0.0386507
4.87908
0.107067
4.85097
0.24183
4.87693
0.381546
4.92897
0.48506
5.03427
0.612094
5.34462
0.739569
5.55083
0.626897
6.5304
-0.00490247
8.96937
-0.412489
11.769
-0.0754359
11.7413
0.0959781
12.0459
0.131332
11.0681
6.94453
0.0906196
6.85628
0.237968
10.8841
0.312829
11.9833
0.583107
11.4941
0.792153
11.6433
0.0469147
9.82503
-0.438316
7.23502
-0.4512
5.55639
-0.376543
5.25036
-0.261783
4.94336
-0.157417
4.81669
-0.029394
4.74991
0.0921053
4.72843
0.222433
4.74558
0.332714
4.81748
0.448868
4.91747
0.531755
5.26035
0.591427
5.49062
0.27326
6.84444
-0.619897
9.8578
-0.509938
11.6618
-0.187554
11.4318
-0.0849915
11.9671
-0.00950837
10.9842
6.91912
-0.121129
6.98197
-0.0142948
10.783
0.0953371
11.874
0.336614
11.2533
0.706282
11.2697
0.128215
10.4017
-0.3591
7.72128
-0.465446
5.66144
-0.375073
5.15907
-0.308026
4.87467
-0.203911
4.71087
-0.0969819
4.64234
0.0241003
4.60644
0.133378
4.63569
0.237472
4.71308
0.309157
4.84515
0.39811
5.17211
0.297052
5.58921
-0.202556
7.34169
-0.930279
10.5853
-0.584603
11.3159
-0.346882
11.1953
-0.26044
11.8852
-0.0488971
10.7441
6.85231
0.0549019
6.92937
0.243613
10.5985
0.28515
11.834
0.477644
11.0605
0.903842
10.8433
0.809175
10.4978
0.0329538
8.49873
-0.311818
6.0027
-0.303371
5.14963
-0.209684
4.77996
-0.127974
4.62922
-0.0271417
4.54117
0.0765284
4.50228
0.179413
4.5325
0.269573
4.62186
0.356657
4.75836
0.386957
5.13858
0.0778028
5.89817
-0.67337
8.09323
-0.838799
10.7522
-0.392413
10.8729
-0.166301
10.965
-0.0982546
11.7958
0.042809
10.594
6.88074
0.0725577
6.85789
0.32227
10.3532
0.405211
11.7577
0.56617
10.9017
0.878098
10.5295
1.03283
10.3411
0.428787
9.09955
-0.0652012
6.49511
-0.20433
5.28985
-0.163174
4.73882
-0.0915106
4.55617
-0.0171246
4.46665
0.0737846
4.41115
0.152584
4.45356
0.235919
4.53805
0.304396
4.68999
0.21591
5.22737
-0.210785
6.3247
-0.949348
8.83176
-0.724791
10.5175
-0.410009
10.5526
-0.240534
10.7873
-0.167368
11.7291
0.00434907
10.4318
6.87866
-0.00600751
6.86249
0.166803
10.1846
0.281819
11.639
0.419984
10.7569
0.650896
10.2968
1.05039
9.9402
0.79267
9.35776
0.070832
7.21673
-0.206664
5.56699
-0.187954
4.71944
-0.1272
4.49509
-0.0555235
4.39514
0.00933754
4.34618
0.0774075
4.38519
0.138534
4.47549
0.165038
4.66428
-0.125319
5.51674
-0.905466
7.10408
-1.2724
9.20239
-0.779432
10.0366
-0.556795
10.3234
-0.427942
10.6535
-0.346419
11.6489
-0.0932536
10.197
6.79189
-0.00553522
6.86529
0.273004
9.90942
0.4351
11.4773
0.525868
10.6621
0.740982
10.0783
1.02089
9.65587
1.0416
9.3363
0.546731
7.71172
0.0302686
6.08234
-0.0968194
4.84603
-0.0605284
4.45909
-0.0124973
4.34704
0.0367777
4.29683
0.0926106
4.32888
0.1377
4.42981
0.0359637
4.76577
-0.3975
5.94715
-0.968088
7.67837
-1.0298
9.26544
-0.699815
9.70175
-0.454874
10.0801
-0.365846
10.5714
-0.204063
11.4929
0.0533391
9.95486
6.85876
0.0344741
6.83228
0.300378
9.64351
0.570699
11.2134
0.650748
10.5782
0.794858
9.92597
0.960844
9.48187
1.33432
8.96153
0.877672
8.16797
0.233831
6.72984
0.0112711
5.06833
-0.0121506
4.48202
0.0120444
4.32272
0.0322678
4.27656
0.0617455
4.29897
0.0698865
4.41997
-0.135833
4.97217
-0.897951
6.71097
-1.3264
8.11045
-0.950994
8.89002
-0.714428
9.4608
-0.537298
9.90241
-0.469725
10.5065
-0.221531
11.2618
0.0385583
9.70727
6.91128
0.00564723
-0.603286
0.026865
-0.457879
0.0778028
-0.471198
0.13289
-0.575792
0.187449
-0.700893
0.237698
-0.834725
0.276671
-0.87808
0.29008
-0.824396
0.278349
-0.649631
0.244168
-0.41882
0.221948
-0.223261
0.25398
-0.207481
0.318355
-0.343507
0.363233
-0.571334
0.381069
-0.743421
0.386433
-0.855799
0.405906
-0.937577
0.42539
-0.985944
0.444996
-1.0263
0.466706
-1.05663
0.488758
-1.09555
0.507842
-1.13151
0.526207
-1.16307
0.542946
-1.19384
0.554544
-1.23196
0.541879
-1.30097
0.500818
-1.43615
0.379351
-1.78207
0.303163
-3.19862
-3.68921
0.0588937
-0.571918
0.0810207
-0.461032
0.126892
-0.507445
0.17466
-0.615645
0.242304
-0.779348
0.294852
-0.902117
0.322076
-0.907977
0.306549
-0.794625
0.270429
-0.597811
0.217466
-0.362931
0.202911
-0.2017
0.211251
-0.184303
0.271533
-0.291477
0.326161
-0.512429
0.356767
-0.683873
0.387613
-0.814879
0.410606
-0.896109
0.431368
-0.950571
0.451412
-0.992649
0.471976
-1.02945
0.493793
-1.06627
0.51304
-1.10738
0.52921
-1.14291
0.546796
-1.18126
0.549777
-1.23965
0.520348
-1.34953
0.436949
-1.59278
0.344326
-2.65893
0.212772
-3.54048
-3.79318
0.0391884
-0.526456
0.0687873
-0.474563
0.110209
-0.542465
0.163497
-0.666073
0.22989
-0.856942
0.266855
-0.952055
0.272623
-0.909425
0.251055
-0.751926
0.219171
-0.545546
0.178033
-0.31277
0.167073
-0.180109
0.169185
-0.157068
0.22752
-0.252501
0.283949
-0.460259
0.327094
-0.639023
0.357578
-0.77452
0.38455
-0.858884
0.408387
-0.917266
0.431192
-0.960112
0.453945
-1.00558
0.477868
-1.04173
0.500251
-1.08416
0.518903
-1.12683
0.52772
-1.18127
0.520938
-1.27515
0.470332
-1.4769
0.353576
-2.00947
0.290514
-3.41186
0.143247
-3.51566
-3.75553
0.0253262
-0.480682
0.0600453
-0.492395
0.0982973
-0.574163
0.147456
-0.719525
0.204806
-0.924632
0.225355
-0.985445
0.215958
-0.877683
0.190337
-0.698166
0.161533
-0.489712
0.136597
-0.272917
0.130763
-0.161804
0.13712
-0.138352
0.194148
-0.240299
0.252175
-0.430327
0.298723
-0.602558
0.333901
-0.751358
0.364028
-0.822094
0.389876
-0.884012
0.414096
-0.929419
0.437826
-0.973699
0.462138
-1.0146
0.486688
-1.0623
0.509844
-1.11202
0.513876
-1.19027
0.48293
-1.34011
0.37319
-1.68213
0.312942
-3.14426
0.16461
-3.49533
0.110603
-3.47824
-3.7036
0.031116
-0.458738
0.0569801
-0.502389
0.095568
-0.606973
0.153941
-0.793432
0.189271
-0.972421
0.18265
-0.964833
0.152927
-0.826881
0.12823
-0.638303
0.104704
-0.435954
0.0919524
-0.241416
0.0911111
-0.146463
0.105742
-0.131717
0.159952
-0.247617
0.220434
-0.414706
0.271307
-0.576038
0.313219
-0.716679
0.34784
-0.791343
0.376588
-0.855488
0.402273
-0.902669
0.427666
-0.94561
0.453317
-0.989898
0.480455
-1.04181
0.503682
-1.10526
0.497201
-1.22306
0.432715
-1.47081
0.349239
-2.18191
0.16929
-3.36804
0.101211
-3.41185
0.094181
-3.43765
-3.68055
0.0346136
-0.458766
0.0603523
-0.517878
0.0921985
-0.641733
0.142903
-0.86832
0.15216
-0.986376
0.137794
-0.936575
0.102757
-0.765293
0.0734471
-0.567563
0.0529033
-0.382372
0.0499072
-0.217866
0.0555593
-0.136536
0.0795982
-0.137766
0.135064
-0.255883
0.196615
-0.422494
0.25181
-0.560319
0.297009
-0.687197
0.334663
-0.765447
0.365158
-0.828595
0.392304
-0.877533
0.418525
-0.922815
0.446824
-0.969437
0.475451
-1.02641
0.483062
-1.11522
0.45256
-1.28889
0.323547
-1.6916
0.225597
-3.12209
0.0905951
-3.27115
0.0878969
-3.35248
0.0926226
-3.46337
-3.70081
0.032665
-0.463747
0.0509953
-0.529918
0.0769702
-0.679074
0.104221
-0.912118
0.102733
-0.984854
0.0792474
-0.89844
0.0455745
-0.695523
0.0197778
-0.502556
0.00632915
-0.337484
0.00954092
-0.203778
0.024703
-0.139241
0.0528144
-0.152547
0.111
-0.268526
0.176436
-0.424772
0.229283
-0.553843
0.276013
-0.665669
0.316475
-0.743997
0.349388
-0.80687
0.378579
-0.854868
0.407686
-0.90322
0.438532
-0.956441
0.467661
-1.0261
0.462032
-1.15358
0.393505
-1.41822
0.287552
-2.46894
0.10034
-3.16838
0.0694358
-3.18817
0.0842309
-3.30777
0.0907293
-3.43938
-3.71931
0.0222278
-0.464011
0.0363877
-0.542311
0.0552445
-0.713438
0.0584587
-0.927434
0.0463072
-0.972925
0.0187129
-0.853899
-0.0112035
-0.637503
-0.0326229
-0.460644
-0.0380792
-0.316539
-0.0268841
-0.20498
0.00012853
-0.157511
0.0328658
-0.17923
0.0933652
-0.297416
0.155954
-0.435771
0.210029
-0.556895
0.256803
-0.651721
0.298561
-0.72668
0.333498
-0.787194
0.364887
-0.836962
0.396239
-0.890448
0.427825
-0.951914
0.437899
-1.04812
0.403605
-1.2284
0.273298
-1.64296
0.131423
-2.88872
0.0357471
-3.05916
0.063776
-3.12819
0.086338
-3.28774
0.0865629
-3.3676
-3.68826
0.0128497
-0.458372
0.0178889
-0.548863
0.0192741
-0.731602
0.00779304
-0.923489
-0.0124016
-0.948107
-0.0452773
-0.802886
-0.0690819
-0.592975
-0.0800008
-0.437688
-0.0764105
-0.313678
-0.0597701
-0.218491
-0.0265192
-0.191337
0.0179314
-0.223022
0.0766883
-0.335819
0.134913
-0.45137
0.189037
-0.560018
0.23514
-0.645771
0.277312
-0.716188
0.31412
-0.774358
0.34834
-0.82784
0.381737
-0.886746
0.412108
-0.961662
0.408505
-1.09325
0.341983
-1.35928
0.195663
-2.47916
0.0211726
-2.87713
0.0129383
-2.98758
0.059768
-3.08795
0.0970443
-3.27874
0.0910241
-3.36951
-3.62988
0.00299851
-0.445502
-0.00356852
-0.546389
-0.0177124
-0.731128
-0.0395171
-0.902481
-0.0714538
-0.912619
-0.102469
-0.759756
-0.115424
-0.564342
-0.118694
-0.431272
-0.108714
-0.338917
-0.0840386
-0.249171
-0.0451384
-0.236482
0.00732021
-0.278026
0.0617989
-0.381273
0.115323
-0.475442
0.167398
-0.571047
0.2134
-0.647883
0.256101
-0.713225
0.294537
-0.770086
0.331403
-0.82637
0.365355
-0.892304
0.379023
-0.989873
0.347956
-1.17212
0.22768
-1.59424
0.0619259
-2.76163
-0.0212947
-2.82773
0.00598946
-2.94684
0.0605458
-3.07964
0.0996427
-3.26191
0.0966709
-3.38258
-3.5448
-0.00704895
-0.429445
-0.0248434
-0.534653
-0.0511389
-0.711735
-0.0847681
-0.862201
-0.118918
-0.875088
-0.147483
-0.729971
-0.150061
-0.570538
-0.144882
-0.453874
-0.130218
-0.359975
-0.102301
-0.292269
-0.0604451
-0.298247
-0.00412358
-0.346715
0.0458175
-0.428881
0.0961977
-0.507923
0.143561
-0.587483
0.189267
-0.655959
0.232756
-0.716978
0.273551
-0.773037
0.312036
-0.832529
0.339828
-0.911973
0.341919
-1.04295
0.275814
-1.31069
0.134362
-2.4392
-0.0189134
-2.75424
-0.0330383
-2.85604
0.00687724
-2.92992
0.0685796
-3.07741
0.10087
-3.22964
0.0812379
-3.32159
-3.47528
-0.0165309
-0.407254
-0.0429394
-0.513719
-0.0764163
-0.679741
-0.119005
-0.810497
-0.164775
-0.830078
-0.181577
-0.721324
-0.181822
-0.596806
-0.172164
-0.498528
-0.152543
-0.404553
-0.121087
-0.357472
-0.0770748
-0.381306
-0.0253561
-0.42152
0.0251663
-0.480737
0.0726749
-0.546318
0.117791
-0.611052
0.163757
-0.67028
0.208813
-0.727272
0.251327
-0.783167
0.289473
-0.849767
0.307515
-0.951555
0.278289
-1.13967
0.180978
-1.60495
0.0166956
-2.63893
-0.045051
-2.69821
-0.0330211
-2.81017
0.00796017
-2.93616
0.0645637
-3.07044
0.0858524
-3.19059
0.0601378
-3.29498
-3.43108
-0.0258889
-0.377669
-0.0597195
-0.484635
-0.0984979
-0.636435
-0.150465
-0.750108
-0.203512
-0.770086
-0.214126
-0.709488
-0.216992
-0.620818
-0.205249
-0.561883
-0.182188
-0.479733
-0.146628
-0.449196
-0.101545
-0.474749
-0.0525858
-0.496404
-0.000185127
-0.538564
0.0447594
-0.583091
0.0916926
-0.639235
0.13823
-0.690457
0.184717
-0.745597
0.227948
-0.804066
0.258716
-0.885493
0.26055
-1.02645
0.18379
-1.32698
0.0693495
-2.41221
-0.0395856
-2.60889
-0.0538429
-2.6567
-0.0343632
-2.77472
0.00556541
-2.94105
0.0533999
-3.05022
0.0723246
-3.16353
0.0495103
-3.25703
-3.38996
-0.0347615
-0.340288
-0.0755845
-0.446469
-0.11909
-0.584372
-0.176749
-0.684025
-0.22759
-0.707653
-0.246139
-0.681403
-0.254373
-0.615526
-0.244573
-0.592844
-0.219403
-0.541892
-0.180826
-0.529155
-0.135786
-0.539703
-0.0858855
-0.556355
-0.0350675
-0.586628
0.0162877
-0.616877
0.0643255
-0.666266
0.113848
-0.718756
0.161866
-0.775435
0.20385
-0.843668
0.222633
-0.954507
0.190185
-1.17136
0.113359
-2.05861
-0.0204675
-2.51184
-0.0550259
-2.54084
-0.0544309
-2.6171
-0.0369047
-2.76587
0.00297359
-2.91233
0.0466852
-3.01974
0.0675009
-3.1377
0.0476823
-3.23661
-3.35494
-0.041811
-0.296407
-0.0910311
-0.397217
-0.140579
-0.525855
-0.203119
-0.612738
-0.251642
-0.645091
-0.273319
-0.647199
-0.279029
-0.598125
-0.276479
-0.588289
-0.251424
-0.570602
-0.217142
-0.568178
-0.17234
-0.57912