/*--------------------------------*- C++ -*----------------------------------*\
| =========                 |                                                 |
| \\      /  F ield         | OpenFOAM: The Open Source CFD Toolbox           |
|  \\    /   O peration     | Version:  2112                                  |
|   \\  /    A nd           | Website:  www.openfoam.com                      |
|    \\/     M anipulation  |                                                 |
\*---------------------------------------------------------------------------*/
FoamFile
{
    version     2.0;
    format      ascii;
    arch        "LSB;label=32;scalar=64";
    class       volVectorField;
    location    "0.00692";
    object      U;
}
// * * * * * * * * * * * * * * * * * * * * * * * * * * * * * * * * * * * * * //

dimensions      [0 1 -1 0 0 0 0];

internalField   nonuniform List<vector> 
13875
(
(2204.17 109.693 1.81271e-18)
(2142.47 5.62417 -9.3875e-19)
(2170.26 -2.18218 -9.41094e-19)
(2167.78 -0.768649 0)
(2170.32 -0.165029 0)
(2168.91 -1.25374 9.37032e-19)
(2169.53 -0.947838 -9.37072e-19)
(2169.61 -0.210452 -4.6854e-19)
(2169.47 -0.20791 4.68233e-19)
(2169.5 0.0531317 0)
(2169.49 0.497306 -3.88257e-22)
(2169.45 1.13097 -3.88106e-22)
(2169.58 0.947292 0)
(2169.39 -0.00984346 -4.68228e-19)
(2169.45 -0.925723 4.68595e-19)
(2169.61 -1.29213 0)
(2169.88 -0.268221 9.37053e-19)
(2169.22 0.348686 -9.37798e-19)
(2169.14 0.94642 3.87942e-22)
(2169.81 1.18863 -3.85758e-22)
(2170.45 -0.164856 -9.36286e-19)
(2167.84 0.301828 9.37169e-19)
(2171.1 2.49123 -1.8782e-18)
(2143.39 -8.63716 1.91693e-18)
(2210.03 -106.854 1.76527e-18)
(2253.39 91.9354 -1.63245e-18)
(2228.46 -1.16228 1.88336e-18)
(2247.4 0.701905 8.71916e-19)
(2245.44 1.00871 -8.67107e-19)
(2248.41 0.20359 4.16853e-22)
(2246.95 1.73133 5.195e-22)
(2245.84 0.689981 4.16148e-22)
(2245.42 0.146762 -4.35746e-19)
(2245.03 0.366912 4.35984e-19)
(2245.1 0.12259 2.17587e-19)
(2245.24 -0.560421 -1.62983e-19)
(2245.36 -1.4629 -5.31608e-20)
(2247.66 -1.17455 0)
(2247.85 0.0563944 -4.35001e-19)
(2247.56 1.03723 4.3346e-19)
(2245.6 1.43081 4.36028e-19)
(2245.51 0.507038 -4.35304e-19)
(2245.2 -0.241893 5.18487e-22)
(2245.69 -1.56906 -5.18692e-22)
(2247.84 -1.97322 5.1979e-22)
(2248.4 0.741975 -8.71461e-19)
(2245.59 -0.717215 2.59972e-18)
(2247.28 -1.55584 -1.74252e-18)
(2228.81 3.56524 5.43022e-22)
(2256.67 -97.2285 -1.71344e-18)
(2252.4 78.1232 0)
(2236.34 -18.241 0)
(2249.5 4.45123 0)
(2250.58 -1.79615 0)
(2253.59 -2.14686 -1.65145e-18)
(2253.49 1.7229 1.69264e-18)
(2253.2 1.74594 1.72319e-18)
(2253.17 0.654448 -2.58221e-18)
(2253.16 -0.0732273 8.6186e-19)
(2253.68 -0.121205 4.30609e-22)
(2253.71 0.111699 -4.30945e-19)
(2253.06 -2.20803 4.29794e-19)
(2254.09 -2.54966 0)
(2253.98 0.0119875 0)
(2254.04 2.35753 4.08177e-22)
(2253.19 1.99945 0)
(2254.07 0.219179 8.38106e-22)
(2253.12 -0.291472 4.30556e-19)
(2253.1 -2.50992 -4.30673e-19)
(2253.54 -1.75491 0)
(2253.71 2.3504 0)
(2250.91 1.30883 0)
(2250.68 -4.78649 0)
(2238.13 13.6789 0)
(2257.52 -74.2575 0)
(2247.86 51.3566 0)
(2235.05 -28.6764 1.81423e-18)
(2249.3 7.22724 -3.417e-18)
(2251.6 -4.70905 3.4661e-18)
(2253.31 -2.7848 -1.65145e-18)
(2253.49 1.38944 0)
(2253.53 1.44993 -8.25355e-22)
(2254 0.118157 0)
(2254.19 -0.526082 0)
(2254.34 -0.454791 0)
(2254.54 0.332714 0)
(2254.22 -1.89185 -8.44233e-22)
(2254.06 -2.44605 -5.0859e-20)
(2253.96 -0.0080832 5.09539e-20)
(2254 2.2702 0)
(2254.25 1.79887 0)
(2254.74 0.263008 7.9943e-22)
(2254.16 0.391645 -8.56891e-19)
(2253.81 -1.74897 8.56259e-19)
(2253.42 -1.48966 -1.62402e-18)
(2253.56 2.74371 1.62358e-18)
(2251.98 4.32771 1.74091e-18)
(2249.74 -8.8799 -1.72063e-18)
(2235.86 31.1903 0)
(2251.68 -58.5836 0)
(2244.89 39.2798 1.74898e-18)
(2235.45 -47.8767 0)
(2248.76 10.4868 0)
(2250.35 -7.63436 0)
(2253.55 -4.15552 0)
(2253.33 0.959077 1.68845e-21)
(2253.37 1.18113 1.63942e-21)
(2254.09 -0.639629 4.3272e-19)
(2254.22 -0.759459 -4.30278e-19)
(2254.28 -0.526984 2.01099e-19)
(2254.52 0.435065 -2.12633e-19)
(2254.26 -1.37904 0)
(2254.1 -2.20339 0)
(2253.9 -0.0311412 -1.67298e-21)
(2254.05 2.07158 0)
(2254.3 1.35202 -1.68504e-21)
(2254.71 0.273213 8.07164e-19)
(2254 0.722814 -8.50204e-19)
(2253.5 -1.23538 1.71577e-18)
(2253.54 -0.837755 -1.69133e-18)
(2253.61 3.75673 1.65341e-21)
(2250.68 6.45923 0)
(2250.03 -11.5542 0)
(2237.24 42.7063 0)
(2250.17 -35.539 0)
(2241.5 6.75072 0)
(2231.55 -63.6214 9.1243e-19)
(2247.22 12.268 -8.47606e-19)
(2250.9 -11.1805 0)
(2252.5 -4.93399 8.64333e-19)
(2252.95 0.352525 -4.37006e-19)
(2253.49 0.640827 -2.73666e-21)
(2254.05 -1.11668 -2.18646e-19)
(2254.21 -1.19672 -4.33944e-19)
(2254.18 -0.76238 1.59681e-19)
(2254.44 0.478994 1.64714e-21)
(2254.19 -1.03504 2.68537e-19)
(2253.98 -2.01602 -2.15391e-19)
(2253.79 -0.0805179 3.37729e-21)
(2253.89 1.88767 -4.27638e-19)
(2254.21 1.15499 4.33211e-19)
(2254.64 0.334379 1.63654e-21)
(2254.1 1.33124 -1.68317e-21)
(2253.73 -0.356123 -1.67961e-21)
(2252.96 -0.36861 -8.59436e-19)
(2252.77 4.12843 8.46154e-19)
(2251.44 10.6878 0)
(2247.37 -15.1935 0)
(2232.42 65.3977 -1.93283e-18)
(2245.96 -18.684 -1.26153e-19)
(2254.03 2.89528 -4.95245e-20)
(2227.5 -79.3543 6.0242e-20)
(2243.06 12.2297 0)
(2248.51 -15.6457 -2.69178e-23)
(2252.13 -6.85899 -2.63088e-23)
(2252.55 -0.710251 0)
(2253.07 -0.153052 0)
(2254.08 -1.86009 -8.6342e-19)
(2253.99 -1.26465 8.59598e-19)
(2253.93 -0.755562 0)
(2254.23 0.58109 1.68358e-18)
(2254.14 -0.477297 4.99022e-21)
(2253.9 -1.57104 -1.72207e-18)
(2253.63 -0.0963717 -1.70913e-21)
(2253.86 1.46013 0)
(2254.19 0.695605 3.44539e-18)
(2254.42 0.384289 1.80213e-21)
(2253.74 1.70282 -6.90585e-18)
(2253.08 0.287827 3.45081e-18)
(2252.82 0.942647 2.64282e-23)
(2252.27 6.09489 0)
(2248.52 12.9707 3.52714e-18)
(2244.19 -12.5286 -3.30781e-18)
(2228.9 73.0562 3.81565e-18)
(2247.14 2.95808 -3.18065e-18)
(2218.38 -22.8484 -3.16922e-19)
(2214.71 -87.4813 -7.49626e-18)
(2235.67 3.49275 8.70685e-22)
(2246.08 -22.4542 2.61189e-23)
(2248.76 -9.05271 -8.09616e-22)
(2251.19 -2.34479 0)
(2252.89 -1.54831 -3.44478e-18)
(2253.82 -2.42471 3.45755e-18)
(2253.64 -1.62961 0)
(2253.57 -1.10405 -8.28229e-22)
(2253.94 0.391494 -8.21851e-22)
(2253.89 -0.20458 0)
(2253.58 -1.33694 0)
(2253.32 -0.0585308 -1.65569e-21)
(2253.47 1.2848 -8.36499e-22)
(2253.93 0.548852 2.59924e-23)
(2254.13 0.703857 -8.56104e-22)
(2253.51 2.44973 -2.62886e-23)
(2252.9 1.73697 -1.73234e-18)
(2251.41 2.39401 -1.62286e-20)
(2249.26 8.0453 1.68894e-18)
(2246.39 19.4031 8.85462e-22)
(2236.72 -4.79995 3.45897e-18)
(2216.52 81.5923 -3.53867e-18)
(2222.41 18.1674 2.50197e-23)
(2113.33 -37.8662 9.42567e-19)
(2168.64 -98.6167 0)
(2217.13 -20.2056 -8.31544e-22)
(2234.96 -32.3593 -8.65876e-19)
(2245.76 -17.6759 1.71026e-18)
(2248.88 -6.4066 -1.72679e-18)
(2251.34 -3.46998 9.02358e-21)
(2253.1 -3.41823 8.59656e-19)
(2252.84 -1.57971 0)
(2252.78 -1.03896 -8.45959e-19)
(2253.23 0.44883 8.4598e-19)
(2253.36 0.445868 0)
(2253.05 -0.74962 0)
(2252.71 -0.180402 2.10081e-21)
(2252.94 0.56334 8.31787e-22)
(2253.3 0.0669386 8.4103e-19)
(2253.32 0.919876 -8.44234e-19)
(2252.51 3.25013 0)
(2251.24 3.35917 8.60721e-19)
(2249.45 6.02352 -1.72885e-18)
(2246.22 15.1336 8.45107e-19)
(2236.18 28.8853 -8.40898e-22)
(2219.02 16.653 0)
(2171.34 94.0149 0)
(2117.26 35.365 0)
(1873.73 -142.207 -6.56975e-17)
(2125.79 -161.366 8.42369e-17)
(2198.92 -54.8294 0)
(2229.28 -54.1988 -2.99483e-17)
(2239.71 -21.9218 3.06862e-17)
(2246.47 -10.9905 0)
(2249.83 -7.64191 -2.95711e-20)
(2251.46 -4.92407 -1.46253e-17)
(2251.41 -2.3232 1.46093e-17)
(2251.44 -1.68634 -2.93769e-20)
(2251.99 -0.169981 0)
(2252.17 0.434114 -3.69888e-18)
(2251.87 -0.380392 5.58618e-18)
(2251.49 -0.139471 -1.89687e-18)
(2251.66 0.465656 -2.91651e-20)
(2251.99 0.42646 0)
(2251.87 1.81845 0)
(2250.92 5.03017 -2.94833e-17)
(2249.4 7.52296 2.90931e-17)
(2246.67 10.2777 -3.0603e-17)
(2240.48 20.4756 2.91911e-17)
(2229.42 52.9621 3.22087e-17)
(2199.92 52.5152 -2.92237e-17)
(2128.75 161.9 -8.33803e-17)
(1884.85 138.355 -1.2575e-17)
(1653.34 -215.541 -9.08245e-17)
(2011.59 -307.52 1.37578e-16)
(2159.62 -104.442 0)
(2210.93 -64.8971 6.82508e-17)
(2232.82 -29.6719 -7.07606e-17)
(2241.92 -15.5116 -3.40778e-17)
(2245.7 -8.13408 3.40549e-17)
(2248.21 -4.18373 -3.29999e-17)
(2248.41 -1.6449 3.33129e-17)
(2248.75 -1.05805 3.25582e-20)
(2249.52 0.267282 0)
(2249.81 1.06446 -2.11338e-18)
(2249.57 0.358585 2.16587e-18)
(2249.11 -0.215367 3.3164e-20)
(2249.19 -0.515148 3.26692e-20)
(2249.32 -0.424371 3.2751e-20)
(2249.07 0.922479 0)
(2247.95 4.57675 0)
(2245.01 7.58118 -6.77126e-17)
(2242.22 15.3057 6.8208e-17)
(2233.66 26.8729 -7.13868e-17)
(2211.6 59.0017 1.47089e-16)
(2166.09 99.242 -6.99684e-17)
(2016.78 298.515 -3.86863e-20)
(1698.06 205.992 8.75274e-20)
(1281.95 -592.527 -1.08908e-16)
(1742.49 -590.821 1.18901e-16)
(2047.01 -180.864 2.16721e-16)
(2174.07 -106.936 -9.35144e-17)
(2208.39 -36.8844 0)
(2230.07 -20.9383 7.43269e-17)
(2238.48 -13.5233 -7.51732e-17)
(2241.79 -7.10685 0)
(2242.51 -4.12387 3.54605e-20)
(2243.4 -2.90434 0)
(2244.35 -0.999069 0)
(2244.67 0.649303 0)
(2244.57 0.785852 4.65915e-18)
(2244.1 0.173759 -4.65901e-18)
(2244.04 0.0993842 -3.72076e-20)
(2243.78 0.864567 -3.52862e-20)
(2243.17 2.90906 0)
(2241.57 7.30082 0)
(2237.83 13.9985 0)
(2228.46 19.0642 -7.89165e-17)
(2211.5 37.1662 1.56884e-16)
(2176.5 102.435 -7.23068e-17)
(2053.3 161.991 -1.33593e-16)
(1750.26 592.313 1.00478e-16)
(1286.23 543.623 -5.99363e-20)
(1302.29 -610.305 1.60736e-16)
(1113.8 -1086.68 0)
(1703.77 -452.498 0)
(1927.6 -129.967 -1.08372e-16)
(2150.5 -85.6095 1.09218e-16)
(2201.18 -43.0554 0)
(2215.46 -13.264 1.12799e-20)
(2223.86 -5.10843 4.03427e-17)
(2227.17 -1.47704 -4.09196e-17)
(2229.88 -0.698978 0)
(2231.52 0.639629 -1.00792e-17)
(2232.03 1.48005 1.0114e-17)
(2232.18 1.48108 -5.07275e-18)
(2231.75 0.403798 5.08568e-18)
(2231.34 -0.696395 3.86164e-20)
(2230.1 -1.27401 -4.06236e-17)
(2227.62 -0.274619 8.05377e-17)
(2223.3 4.30111 1.03632e-18)
(2213.53 13.2135 -4.04261e-17)
(2197.68 44.6678 -9.09e-17)
(2134.07 71.8608 8.43776e-17)
(1911.57 108.708 8.27155e-20)
(1759.5 453.127 2.60817e-20)
(1103.55 1071.49 1.67383e-16)
(1319.68 612.284 7.16216e-18)
(1359.33 -629.37 0)
(1143.01 -1059.54 0)
(1292.21 -752.341 0)
(1200.84 -820.42 0)
(1952.48 -255.688 0)
(2049.4 -61.5817 1.02107e-16)
(2156.03 -46.59 -1.04136e-16)
(2173.89 -29.6889 1.15883e-19)
(2182.64 -19.2341 -1.03268e-20)
(2189.9 -11.3097 2.26368e-17)
(2192.95 -5.23601 -2.28959e-17)
(2193.94 -1.01816 -2.2706e-19)
(2194.29 1.0498 -7.08747e-19)
(2193.87 2.14007 8.04863e-19)
(2193.05 4.17785 -2.27169e-17)
(2190.4 8.88923 2.24747e-17)
(2183.41 18.0489 9.97814e-20)
(2172.97 31.7167 0)
(2149.13 52.7028 0)
(2018.55 86.5369 0)
(1916.76 323.504 -2.11228e-16)
(1179.7 820.173 -6.04318e-17)
(1296.16 703.713 1.6396e-16)
(1135.38 1023.32 2.05624e-20)
(1369.22 618.891 2.08588e-20)
(1437.23 -621.001 0)
(1273.08 -929.28 3.94439e-20)
(1322.19 -783.962 0)
(1234.45 -857.445 -1.67203e-16)
(1331.95 -805.483 3.18486e-16)
(1645.59 -554.377 -2.04199e-16)
(1936.98 -116.56 0)
(1954.02 -11.2843 -1.0268e-19)
(1998.74 17.0545 0)
(2037.93 10.8947 0)
(2051.26 7.37052 -1.41675e-17)
(2055.52 3.67133 1.4492e-17)
(2056.77 2.41886 1.43105e-17)
(2056.21 1.09509 -1.43942e-17)
(2053.73 -1.17078 0)
(2044.29 -5.84806 -5.90277e-17)
(2010.12 -12.5465 5.96252e-17)
(1956.76 15.2903 7.13598e-17)
(1935.94 137.944 -5.99044e-17)
(1602.63 583.585 0)
(1306.85 795.925 0)
(1206.06 847.19 -1.68445e-19)
(1330.4 778.235 -1.70858e-16)
(1266.63 919.476 3.66672e-16)
(1425.39 618.897 -1.69391e-16)
(1519.2 -630.539 -1.69319e-16)
(1389.07 -851.212 1.8708e-16)
(1382.53 -755.165 0)
(1278.79 -813.919 -1.91026e-16)
(1303.57 -778.055 -6.53621e-18)
(1298.05 -745.344 2.77971e-16)
(1252.81 -590.136 -1.9947e-16)
(1297.86 -519.935 1.19176e-16)
(1505.53 -291.81 0)
(1545.25 -133.496 0)
(1530.83 -66.0943 -4.14803e-20)
(1526.55 -24.6118 2.79597e-19)
(1523.23 -3.92527 0)
(1525.04 14.5054 0)
(1529.35 47.1934 5.90761e-17)
(1540.94 118.079 -5.61089e-17)
(1549.79 247.651 -1.12516e-16)
(1313.01 522.544 2.26569e-16)
(1240.06 591.728 1.79193e-17)
(1279.57 746.61 -8.98262e-17)
(1298.71 775.131 0)
(1252.09 818.789 0)
(1380.49 757.356 -1.74185e-16)
(1352.33 884.151 2.0338e-16)
(1501.85 640.544 -4.59234e-20)
(1658.26 -609.353 1.57374e-16)
(1559.44 -750.844 -9.69442e-20)
(1525.54 -687.472 9.54508e-17)
(1468.36 -716.72 -8.46175e-17)
(1392.66 -672.937 -4.52889e-20)
(1326.9 -593.147 8.80372e-20)
(1181.88 -443.066 1.15914e-16)
(838.506 -223.662 -1.81819e-16)
(649.494 -119.305 6.41312e-17)
(509.295 -52.1178 0)
(384.846 -18.2718 -3.37348e-17)
(341.894 -5.86602 3.36307e-17)
(323.583 0.0289627 0)
(331.184 6.21328 6.24804e-20)
(363.788 13.4833 -3.35601e-17)
(473.718 42.873 3.38608e-17)
(692.554 115.331 0)
(834.238 231.922 -1.17887e-16)
(1161.92 429.015 1.176e-16)
(1310.74 587.414 8.9427e-17)
(1387.18 677.725 -1.88081e-16)
(1434.98 742.678 9.90733e-17)
(1518.06 709.099 0)
(1545.25 776.927 1.68869e-16)
(1648.47 624.623 -3.29398e-18)
(1813.36 -549.972 -3.36199e-18)
(1746.1 -590.156 8.05125e-17)
(1687.54 -530.585 -3.66324e-17)
(1528.32 -406.038 -5.75719e-17)
(1428.66 -338.411 7.30188e-17)
(1374.95 -254.628 -5.13821e-17)
(1275.31 -244.771 5.34629e-17)
(909.744 -174.455 -5.91899e-17)
(702.291 -94.5599 -4.11687e-19)
(588.655 -59.9179 3.30946e-17)
(492.746 -39.1842 1.65131e-17)
(460.352 -20.6475 -1.6003e-19)
(447.271 -0.80516 -1.6689e-17)
(454.345 22.5463 -6.13751e-20)
(485.416 38.5682 -7.59268e-20)
(578.737 54.9376 -2.07694e-18)
(760.484 90.6142 1.47798e-20)
(926.542 166.799 5.45374e-18)
(1275.11 219.948 -3.53004e-18)
(1375.18 287.286 0)
(1422.05 396.28 1.08394e-17)
(1536.38 454.052 -3.49081e-17)
(1688.12 577.72 4.16773e-17)
(1741.45 625.267 -5.68003e-17)
(1808.54 567.942 5.33086e-17)
(1991.04 -509.302 -8.66565e-20)
(1950.17 -338.875 -1.04952e-19)
(1884.78 -306.052 1.23278e-19)
(1773.67 -194.167 -5.65161e-21)
(1499.11 -32.3357 -1.8533e-19)
(1409.2 -16.7892 -1.98672e-19)
(1370.92 -77.1707 -7.23385e-21)
(1183.6 -92.4106 0)
(952.766 -110.442 0)
(832.177 -119.615 6.56508e-17)
(757.31 -98.4232 -6.68171e-17)
(715.173 -45.6719 -8.90129e-21)
(699.97 2.78136 8.87662e-21)
(705.287 50.4451 -8.61026e-18)
(741.548 113.856 8.35326e-18)
(822.357 147.093 0)
(967.595 133.47 0)
(1160.52 108.189 -5.6918e-17)
(1342.42 77.2094 5.5783e-17)
(1368.82 6.35091 -1.93907e-19)
(1494.85 27.2453 0)
(1781.68 207.68 0)
(1885.71 312.382 -1.25309e-19)
(1948.02 335.217 -1.07693e-19)
(1990.67 522.758 1.23264e-16)
(1538.59 -180.876 -1.8719e-16)
(1743.67 -106.504 -2.42154e-16)
(1863.73 108.508 1.20707e-16)
(1797.03 172.631 0)
(1613.2 216.644 2.03666e-19)
(1516.55 134.884 1.07259e-16)
(1505.82 18.7475 -2.08366e-16)
(1403.14 -21.2215 1.06525e-16)
(1210.71 -60.8962 -1.21587e-16)
(1059.69 -82.4768 1.25349e-16)
(942.731 -68.3222 3.29447e-17)
(875.551 -26.2347 -4.0977e-17)
(852.121 7.25196 -8.29799e-18)
(868.716 38.9369 1.67705e-17)
(936.761 87.6593 0)
(1068.21 109.316 0)
(1229.97 82.5054 1.17148e-16)
(1389.55 39.8247 -2.21389e-16)
(1494.9 -24.336 1.08994e-16)
(1497.7 -150.554 2.28865e-19)
(1632 -220.394 1.56714e-16)
(1790.62 -165.471 -9.36591e-17)
(1841.26 -143.663 -4.7745e-16)
(1743.59 120.18 6.29532e-16)
(1537.37 186.339 -2.52781e-16)
(26.8436 -65.5411 1.1478e-19)
(603.721 -70.5287 -2.58161e-16)
(1430.36 361.522 1.68145e-16)
(1692.29 515.363 0)
(1660.95 433.31 0)
(1614.45 261.931 0)
(1603.67 124.684 0)
(1527.07 64.4902 0)
(1357.58 16.3695 -5.19882e-17)
(1200.97 -17.7194 1.08735e-16)
(1080.04 -22.886 -8.46919e-17)
(1006.17 -3.91205 3.21378e-17)
(985.645 9.99344 -3.61964e-18)
(1006.79 21.5194 1.56155e-20)
(1089.16 44.2567 -5.58391e-17)
(1228.01 40.0005 5.56027e-17)
(1388.27 1.90445 0)
(1528.86 -49.7538 0)
(1607.44 -125.587 -1.72458e-16)
(1601.79 -287.802 1.85378e-16)
(1670.9 -438.338 -1.63558e-19)
(1674.46 -511.952 7.13257e-20)
(1378.13 -352.17 -9.52534e-20)
(532.485 96.517 -1.14616e-19)
(-9.27148 65.3692 0)
(-324.731 -42.6864 -2.24169e-16)
(472.004 315.07 2.26627e-16)
(1305.58 700.817 -1.65194e-19)
(1662.12 746.314 1.59346e-16)
(1721.4 581.974 -1.22387e-16)
(1694.77 370.408 0)
(1673.83 225.631 -8.17848e-17)
(1611.22 159.032 7.47283e-17)
(1463.15 91.569 -4.48243e-17)
(1316 38.3486 9.3848e-17)
(1194.47 14.8872 -4.82658e-17)
(1125.82 11.1604 1.82979e-19)
(1105.15 7.91832 0)
(1131.66 2.88329 2.48836e-17)
(1213.46 -1.06544 2.31828e-17)
(1350.45 -28.2124 -4.7555e-17)
(1493.7 -87.6417 -8.18442e-17)
(1613.22 -150.457 8.3986e-17)
(1683.07 -226.329 -7.14625e-17)
(1689.09 -401.222 7.97476e-17)
(1720.74 -605.802 7.98876e-20)
(1627.5 -763.096 -7.50825e-20)
(1239.66 -687.98 0)
(404.13 -299.596 1.10336e-19)
(-331.569 38.4137 0)
(349.897 351.163 1.8806e-16)
(929.622 787.967 -1.81456e-16)
(1449.06 896.103 6.07063e-20)
(1703.4 861.921 0)
(1772.92 674.147 0)
(1742.84 494.198 -7.29532e-21)
(1714.33 350.633 0)
(1666.98 248.306 7.42678e-20)
(1540.51 165.748 0)
(1407.29 96.9826 4.17389e-17)
(1299.38 51.0677 -6.40711e-17)
(1231.26 25.8319 3.26257e-17)
(1212.61 6.83479 -1.09927e-17)
(1237.15 -14.8376 0)
(1316.75 -39.8631 0)
(1437.69 -89.289 3.8994e-17)
(1564.89 -160.352 -1.09757e-16)
(1665.82 -246.498 7.31254e-17)
(1731.95 -341.304 -6.02498e-17)
(1742.06 -500.237 7.05024e-17)
(1782.26 -682.962 0)
(1687.36 -881.813 0)
(1430.64 -897.012 0)
(933.607 -798.624 -1.11633e-20)
(360.982 -342.343 -1.96774e-16)
(414.216 184.253 -3.56402e-20)
(1181.06 772.632 1.51866e-16)
(1570.43 952.993 -1.1446e-16)
(1759.99 902.073 0)
(1802.4 736.177 0)
(1765.2 584.011 7.4733e-21)
(1752.25 442.972 6.41841e-17)
(1715.18 325.232 -5.73094e-17)
(1603.17 222.143 3.05188e-20)
(1485.9 138.648 3.31254e-20)
(1386.65 79.2317 3.4915e-20)
(1327.63 37.849 -1.03293e-20)
(1307.62 4.546 -1.03735e-20)
(1332.91 -30.5476 1.92706e-17)
(1402.67 -73.6323 -1.93618e-17)
(1514.13 -135.845 4.24249e-20)
(1625.95 -219.836 3.90805e-20)
(1711.2 -326.898 0)
(1764.59 -433.709 -5.37101e-17)
(1774.14 -581.674 6.25826e-17)
(1815.67 -741.018 0)
(1754.89 -914.021 -9.73554e-17)
(1554.01 -953.553 1.18759e-16)
(1166.07 -758.86 8.79564e-21)
(416.448 -169.545 -1.85001e-16)
(618.036 194.189 4.10157e-20)
(1328.11 796.19 0)
(1653.89 956.381 0)
(1797.47 910.358 -4.72309e-17)
(1811.63 776.467 4.62214e-17)
(1780.96 645.249 0)
(1783.06 511.322 5.83501e-17)
(1751.41 383.542 -5.28998e-17)
(1651.63 273.066 3.20199e-17)
(1548.43 178.347 -3.22618e-17)
(1464.4 103.149 1.77121e-17)
(1408.75 48.7343 -1.78126e-17)
(1393.58 2.32076 0)
(1415.59 -46.5319 -1.76434e-17)
(1481.61 -103.211 1.77091e-17)
(1576.41 -182.633 -3.48362e-20)
(1675 -273.039 -3.22374e-20)
(1749.12 -393.925 5.17773e-20)
(1791.78 -510.779 4.93009e-17)
(1784.64 -647.88 -5.77213e-17)
(1828.33 -783.306 -4.57795e-20)
(1796.15 -921.954 -4.33728e-20)
(1644.01 -946.959 0)
(1288.49 -774.012 -7.00375e-20)
(587.903 -173.796 4.1624e-20)
(655.018 180.704 1.57126e-22)
(1390.36 729.782 0)
(1716.25 894.621 9.04878e-23)
(1796.62 908.219 3.95184e-20)
(1815.64 809.744 -8.52638e-23)
(1795.64 694.938 -5.15103e-17)
(1811.58 563.35 4.58774e-17)
(1787.96 433.376 0)
(1698.86 313.074 -5.94028e-20)
(1610.77 210.564 -1.08383e-22)
(1532.31 125.947 -1.13885e-22)
(1486.2 57.6655 6.8759e-20)
(1469.06 0.802452 0)
(1490.85 -57.1091 0)
(1545.97 -126.568 -1.13222e-22)
(1633.74 -214.679 -1.0737e-22)
(1719.31 -313.786 -2.64499e-17)
(1782.59 -440.822 7.53862e-17)
(1815.31 -561.611 -5.3073e-17)
(1800.92 -694.574 0)
(1830.81 -805.742 -4.39398e-17)
(1797.68 -913.777 4.29899e-17)
(1716.99 -889.371 9.00663e-23)
(1386.46 -710.523 6.00635e-20)
(663.274 -189.971 1.56611e-22)
(769.065 221.764 3.98873e-18)
(1497.93 704.304 1.37123e-17)
(1760.35 863.708 9.61844e-17)
(1802.27 897.061 -4.03924e-17)
(1828.02 809.46 4.18349e-17)
(1812.99 709.867 -4.76512e-17)
(1837.94 591.361 4.27284e-17)
(1812.77 466.172 -2.53025e-17)
(1733.14 346.183 2.48034e-17)
(1657.88 239.388 1.15212e-22)
(1594.89 143.868 1.20773e-22)
(1551.08 66.8271 -1.23208e-22)
(1538.21 0.690563 7.42148e-18)
(1555.76 -67.7255 7.25632e-18)
(1607.63 -145.911 -1.48667e-17)
(1679.3 -245.269 1.14219e-22)
(1754.77 -342.971 4.91616e-17)
(1811.79 -473.14 -9.55525e-17)
(1843.6 -588.503 4.87184e-17)
(1812.06 -713.931 0)
(1841.62 -808.637 -8.29915e-23)
(1804.95 -901.883 7.70748e-23)
(1756.03 -867.354 -8.23908e-23)
(1491.53 -704.757 -1.19195e-16)
(768.413 -226.1 1.45613e-16)
(804.744 231.807 1.38707e-19)
(1541.29 653.234 0)
(1779.72 806.279 0)
(1805.32 872.259 3.89599e-20)
(1832.44 798.279 8.08361e-20)
(1834.39 723.504 0)
(1864.77 610.427 4.49223e-17)
(1841.27 487.085 -4.24453e-17)
(1768.86 363.313 4.45588e-20)
(1706.78 253.656 -4.77627e-20)
(1647.9 154.96 -1.37527e-17)
(1613.2 69.8902 1.37108e-17)
(1599.27 -3.47311 3.56675e-18)
(1617.7 -78.5533 -3.4657e-18)
(1660.07 -164.289 1.32667e-17)
(1726.7 -268.748 -3.80777e-17)
(1790.09 -373.223 2.47914e-17)
(1836.74 -503.38 -4.64495e-20)
(1864.42 -617.649 3.93473e-20)
(1832.56 -731.752 -4.01575e-17)
(1843.63 -800.475 1.1479e-18)
(1812.02 -873.971 -1.66985e-18)
(1784.15 -802.774 4.05765e-17)
(1520.72 -633.34 5.54461e-20)
(761.381 -227.344 6.75058e-20)
(797.301 213.445 1.33464e-16)
(1574.1 594.002 -1.07404e-16)
(1804.16 763.165 0)
(1820.42 846.746 -3.78394e-17)
(1851.6 787.413 2.8051e-19)
(1854.26 717.462 3.91362e-17)
(1887.71 617.974 4.17572e-17)
(1860.27 505.64 -4.01295e-17)
(1797.47 386.52 -4.72306e-20)
(1745.32 276.682 -2.46153e-17)
(1699.89 171.062 1.19288e-17)
(1666.05 80.9341 1.26235e-17)
(1655.59 0.82275 -5.37828e-20)
(1668.54 -81.6325 0)
(1708.22 -171.469 0)
(1760.27 -281.989 0)
(1817.24 -380.735 4.67887e-20)
(1860.06 -509.533 9.70962e-21)
(1890.85 -612.188 -4.97828e-20)
(1852.66 -718.958 0)
(1860.98 -788.07 3.80293e-20)
(1823.77 -849.631 9.21655e-21)
(1805.93 -772.099 -4.78413e-20)
(1592.36 -600.317 -1.05163e-16)
(844.964 -230.609 1.33799e-16)
(832.85 237.743 6.5403e-17)
(1590.07 530.619 -9.53906e-17)
(1820.05 677.502 8.2205e-17)
(1832.53 791.298 -4.07612e-17)
(1858.91 756.333 -3.77407e-17)
(1873.7 707.278 3.72443e-17)
(1909.6 621.187 1.93054e-17)
(1883.31 512.599 -1.90209e-17)
(1826.82 391.164 1.086e-17)
(1785.99 280.48 -2.24414e-17)
(1741.78 175.305 1.73866e-17)
(1716.75 81.782 -7.37515e-18)
(1705.35 -2.0694 1.48758e-18)
(1719.68 -88.5114 -4.36701e-20)
(1751.14 -181.194 2.28819e-17)
(1801 -294.065 -2.29431e-17)
(1847.05 -397.168 3.89322e-20)
(1880.08 -523.004 3.7998e-17)
(1910.74 -622.194 -2.04939e-18)
(1867.26 -713.171 -3.83607e-17)
(1865.64 -759.377 0)
(1839.16 -799.843 4.05345e-17)
(1822.69 -699.368 -3.6055e-17)
(1592.2 -540.488 -1.01732e-16)
(854.115 -252.534 -7.85866e-19)
(937.874 267.495 -6.25233e-17)
(1651.46 481.543 4.78467e-17)
(1844.28 631.99 1.89645e-20)
(1845.33 751.705 -5.37453e-20)
(1885.49 739.408 1.8287e-20)
(1895.9 685.686 3.57946e-17)
(1931.38 601.949 -1.72195e-17)
(1897.07 505.795 -1.84099e-17)
(1849.58 394.036 4.17368e-20)
(1815.82 288.298 -4.42214e-20)
(1783.24 179.753 2.02716e-20)
(1758.54 84.3319 -2.05905e-20)
(1751.61 -3.1901 0)
(1761.32 -94.3998 5.26932e-21)
(1791.49 -188.705 -1.07163e-17)
(1828.46 -303.248 1.07906e-17)
(1870.6 -398.304 -1.93997e-17)
(1899.56 -520.819 1.04333e-18)
(1933.53 -605.232 1.8098e-17)
(1891.55 -691.906 -5.28558e-20)
(1888.79 -745.504 -3.70159e-17)
(1851.55 -757.897 3.48588e-17)
(1848.86 -637.029 0)
(1642.22 -486.121 -4.82192e-17)
(895.185 -261.104 6.23141e-17)
(959.465 273.415 0)
(1668.42 433.654 -4.18927e-17)
(1849.41 545.883 4.26812e-17)
(1864.61 672.425 1.76708e-20)
(1895.87 699.671 1.71912e-20)
(1914.39 665.929 -3.42283e-17)
(1945.44 598.79 3.41762e-17)
(1916.88 509.558 1.83704e-17)
(1876.17 397.441 8.03124e-19)
(1851.43 290.904 -1.97383e-17)
(1818.33 184.43 -2.14824e-20)
(1801.11 88.0756 2.41577e-20)
(1791.94 -0.451189 0)
(1802.64 -92.4536 4.34304e-20)
(1825.1 -186.012 -2.14183e-20)
(1862.33 -301.875 9.79628e-18)
(1894.8 -399.591 -9.6852e-18)
(1913.82 -517.422 -1.83777e-20)
(1946.49 -598.699 -1.91339e-20)
(1907.9 -668.246 1.74344e-20)
(1898.62 -707.54 -3.65017e-17)
(1868.24 -693.982 -6.27275e-18)
(1862.19 -567.897 3.32439e-17)
(1677.5 -434.741 0)
(960.114 -257.461 6.0243e-17)
(1047.18 286.484 -1.14385e-16)
(1704.67 392.819 4.4526e-17)
(1863.36 487.788 3.22954e-17)
(1885.95 628.157 -4.07302e-17)
(1915.44 673.391 0)
(1937.54 645.864 -2.05241e-21)
(1964.84 575.331 0)
(1928.51 491.745 -2.20933e-21)
(1895.09 391.648 -2.34469e-21)
(1874.64 291.772 0)
(1851.95 184.627 0)
(1834.37 88.1326 -2.56478e-21)
(1829.67 -1.77228 0)
(1836.34 -96.6552 0)
(1858.63 -190.105 -9.636e-18)
(1884.01 -304.144 9.63781e-18)
(1916.07 -391.563 -2.3247e-21)
(1932.25 -504.76 -1.72298e-17)
(1965.49 -579.345 1.63588e-17)
(1933.87 -649.587 0)
(1915.44 -683.201 3.56808e-17)
(1886.67 -642.068 -7.28361e-17)
(1872.17 -505.038 7.27152e-17)
(1705.89 -390.023 4.37407e-18)
(1036.81 -275.175 -5.73828e-17)
(1104.24 278.446 1.35278e-20)
(1724.24 362.661 -1.03256e-20)
(1865.37 422.237 0)
(1903.06 538.629 0)
(1924.5 617.415 0)
(1954.94 615.858 7.63967e-21)
(1973.92 563.126 0)
(1943.9 483.913 -7.89753e-21)
(1919.22 385.183 0)
(1906.49 283.69 -8.50459e-21)
(1880.21 180.091 0)
(1869.58 85.2363 -2.34966e-18)
(1862.24 -3.04597 2.34354e-18)
(1870.76 -96.2476 0)
(1886.48 -186.247 9.19535e-18)
(1914.36 -301.498 -1.81022e-17)
(1936.81 -392.039 8.76368e-18)
(1944.59 -495.902 0)
(1975.88 -568.504 1.5918e-17)
(1947.74 -621.33 -1.58346e-17)
(1927.37 -629.374 3.56676e-17)
(1905.92 -565.573 -3.15411e-17)
(1866.55 -432.616 0)
(1722.72 -352.047 0)
(1111.59 -295.348 0)
(1143.72 269.323 -1.31721e-20)
(1746.93 337.495 1.02513e-20)
(1880.68 359.617 0)
(1918.98 467.013 0)
(1944.07 581.808 0)
(1973.82 597.679 -7.57194e-21)
(1994.35 539.641 0)
(1955.99 461.736 8.25355e-21)
(1936.59 375.672 0)
(1925.21 284.57 -8.81637e-18)
(1909 183.107 8.81586e-18)
(1896.32 88.177 -8.40117e-21)
(1893.04 0.333596 9.24828e-21)
(1897.15 -94.2684 8.39547e-21)
(1913.58 -183.193 0)
(1930.97 -293.783 0)
(1956.46 -372.474 8.5521e-21)
(1961.27 -472.393 -1.6337e-17)
(1996.23 -543.176 1.50934e-17)
(1970.77 -602.342 0)
(1940.35 -595.238 7.8033e-21)
(1921.94 -486.683 0)
(1877.69 -374.638 0)
(1752 -332.871 0)
(1171.7 -266.596 0)
(1171.68 237.45 -5.05041e-17)
(1758.9 307.81 4.16222e-17)
(1889.44 309.03 0)
(1930.49 380.122 -1.68674e-20)
(1955.1 519.152 0)
(1984.13 553.204 -1.44492e-17)
(2001.46 519.741 3.03162e-17)
(1970.05 450.904 -1.58829e-17)
(1957.23 366.784 -8.13959e-18)
(1953.36 272.622 8.34022e-18)
(1931.92 174.91 4.35112e-21)
(1925.68 83.4279 1.11061e-18)
(1919.39 -1.7062 -1.07273e-18)
(1926.14 -93.5497 8.46775e-18)
(1937.59 -177.627 -8.53618e-18)
(1958.46 -289.874 0)
(1973.88 -371.048 -1.51976e-20)
(1971.86 -461.739 0)
(2003.15 -529.132 0)
(1981.57 -564.133 -1.61876e-17)
(1951.63 -530.992 1.46629e-17)
(1931.36 -401.421 0)
(1886.74 -311.122 3.61977e-17)
(1760.09 -306.854 2.08177e-18)
(1168.32 -245.636 -1.02578e-16)
(1232.03 221.52 5.06691e-17)
(1783.91 283.982 1.92106e-20)
(1901.57 259.281 3.08981e-17)
(1929.92 317.525 -2.34282e-17)
(1968.17 477.506 -1.77442e-17)
(1998.75 524.239 0)
(2019.63 493.97 7.5845e-21)
(1982.52 423.03 1.52422e-17)
(1972.63 348.56 -1.5876e-17)
(1967.65 265.23 0)
(1955.73 172.612 0)
(1946.58 81.9601 -2.59251e-20)
(1944.71 -1.52289 3.21069e-20)
(1947.26 -94.2083 1.6913e-20)
(1959.91 -176.257 4.06863e-18)
(1971.73 -279.889 -4.04893e-18)
(1992.04 -350.51 8.44073e-21)
(1989.96 -439.063 1.56013e-17)
(2022.85 -500.955 -2.91293e-17)
(1997.25 -532.823 1.39759e-17)
(1966.77 -491.131 -1.48549e-20)
(1934.91 -317.673 0)
(1900.01 -266.948 1.68865e-20)
(1780.25 -290.232 4.01796e-17)
(1205.13 -228.096 -9.92888e-17)
(1239.2 186.143 -4.96001e-17)
(1784.91 256.996 -3.81408e-17)
(1903.99 225.805 3.46668e-17)
(1919.29 237.436 1.45071e-17)
(1977.25 391.453 -1.8465e-17)
(2006.23 463.362 0)
(2024.45 465.143 3.70295e-21)
(1994.83 412.428 -1.10702e-20)
(1991.91 342.858 7.58736e-18)
(1993.01 255.555 -1.56027e-17)
(1975.07 166.564 7.90473e-18)
(1971.55 80.3453 1.97323e-18)
(1966.18 0.234926 -1.85785e-18)
(1971.57 -88.299 1.83332e-18)
(1979.47 -164.984 -1.98003e-18)
(1995.64 -270.558 0)
(2006.83 -343.451 1.12448e-20)
(1997.9 -420.606 -3.58889e-21)
(2026.67 -478.747 -1.49808e-17)
(2004.89 -481.024 1.36535e-17)
(1974.37 -411.087 0)
(1925.48 -254.234 0)
(1905.53 -214.844 -4.11361e-21)
(1787.5 -252.134 -3.97144e-17)
(1233.39 -187.322 -1.73517e-18)
(1278.83 171.199 -2.33437e-17)
(1798.51 242.178 1.94012e-17)
(1915.99 205.536 4.10409e-21)
(1919.79 175.869 0)
(1987.26 318.206 1.34324e-17)
(2018.74 424.675 -1.61812e-17)
(2037.19 437.992 3.43284e-21)
(2007.72 381.159 3.66504e-21)
(2006.16 321.131 1.41108e-20)
(2003.7 245.944 -1.89443e-18)
(1994.39 162.626 9.5234e-19)
(1987.76 77.8579 1.88212e-18)
(1986.99 -0.305171 -9.60411e-19)
(1988.36 -89.3751 3.84047e-18)
(1997.95 -163.133 -3.79832e-18)
(2006.29 -259.062 0)
(2025.23 -323.453 1.0248e-20)
(2015.88 -398.055 -1.51375e-17)
(2040.81 -447.401 1.33259e-17)
(2019.12 -438.396 3.4552e-21)
(1984.73 -343.481 0)
(1914.28 -169.742 0)
(1916.7 -195.818 4.114e-21)
(1801.71 -239.953 -3.88432e-17)
(1279.93 -179.903 4.69619e-17)
(1309.1 146.421 2.32809e-20)
(1805.9 214.765 0)
(1926.68 181.932 -7.79276e-21)
(1927.62 115.166 -1.4447e-17)
(1983.21 237.124 1.78031e-17)
(2018.6 351.207 -1.31272e-17)
(2036.45 392.422 1.53716e-17)
(2015.44 365.041 -7.0307e-18)
(2022.78 311.8 7.35608e-18)
(2026.61 234.209 -3.63595e-18)
(2010.54 152.947 3.70786e-18)
(2008.88 72.5698 -1.81375e-18)
(2004.71 -1.78411 2.08683e-18)
(2009.04 -85.4405 -2.45397e-19)
(2014.72 -154.829 3.70069e-18)
(2028.16 -252.486 -7.29976e-18)
(2037.12 -315.017 -3.76301e-18)
(2021.98 -375.158 7.05705e-18)
(2041.67 -414.06 1.36296e-20)
(2020.79 -371.582 -7.01003e-21)
(1985.51 -237.552 0)
(1922.4 -122.148 0)
(1929.17 -176.634 0)
(1811.66 -217.121 -1.90322e-17)
(1311.48 -161.36 2.2717e-17)
(1329.74 142.879 -2.7838e-21)
(1814.04 199.209 0)
(1945.03 167.162 9.85557e-21)
(1931.64 77.8978 -7.98033e-21)
(1964.97 156.448 -7.2254e-21)
(2027.34 295.123 0)
(2045.73 354.969 -6.66725e-21)
(2028.39 330.02 6.8328e-18)
(2035.31 288.99 -7.31141e-18)
(2034.11 225.175 0)
(2027.15 151.158 1.69999e-21)
(2021.98 73.1143 0)
(2021.85 0.996205 0)
(2022.15 -82.898 1.80348e-18)
(2029.66 -148.72 -1.79247e-18)
(2035.39 -236.144 -7.24398e-21)
(2054.36 -291.672 -1.66234e-21)
(2037.1 -347.029 7.01123e-21)
(2049.04 -367.594 -7.54174e-18)
(2031.19 -323.51 6.36035e-18)
(1974.15 -177.702 -1.7558e-17)
(1925.36 -64.7588 3.10968e-17)