/*--------------------------------*- C++ -*----------------------------------*\
| =========                 |                                                 |
| \\      /  F ield         | OpenFOAM: The Open Source CFD Toolbox           |
|  \\    /   O peration     | Version:  2112                                  |
|   \\  /    A nd           | Website:  www.openfoam.com                      |
|    \\/     M anipulation  |                                                 |
\*---------------------------------------------------------------------------*/
FoamFile
{
    version     2.0;
    format      ascii;
    arch        "LSB;label=32;scalar=64";
    class       volScalarField;
    location    "0.00404";
    object      p;
}
// * * * * * * * * * * * * * * * * * * * * * * * * * * * * * * * * * * * * * //

dimensions      [1 -1 -2 0 0 0 0];

internalField   nonuniform List<scalar> 
13875
(
951598
984288
973630
975807
973399
974241
974480
974541
974612
975161
975028
975075
974764
974827
974892
974568
974470
974528
973821
973854
973077
975636
972393
982368
944893
733823
659567
672308
677371
670461
668674
668788
670447
671226
677934
679122
678412
670393
669202
670414
677741
678585
677055
670214
668187
669253
676996
672332
657319
730636
736914
635558
664415
653522
648212
645747
644652
645060
645857
646983
645925
648770
645874
645667
645433
648545
645122
647757
646065
646193
647607
651836
661954
632131
733434
743563
636202
665294
653667
648483
645927
644772
645164
645895
645359
644060
645594
645944
645780
645500
645550
643852
645930
646156
646399
647888
651955
662702
632732
739246
757405
639208
667835
654344
649325
646475
645145
645428
646059
645455
644235
645669
646168
646073
645736
645621
644036
646026
646472
646963
648694
652538
664990
635367
750688
759101
647862
673586
656267
651134
647647
645958
645993
646428
645771
644733
645919
646649
646659
646257
645884
644557
646367
647184
648134
650443
654406
670570
643095
751985
765139
668367
685796
661142
654874
650052
647642
647233
647255
646542
645768
646620
647676
647824
647321
646559
645695
647349
648755
650611
654301
660076
682114
665823
756156
791378
718399
711749
674580
663059
655248
651176
649829
649137
648363
647855
648296
649806
650177
649521
648253
648020
649613
651981
655552
662216
673076
707202
715451
782264
909027
827980
766850
704773
679787
665713
658331
655102
653305
652407
652125
652168
654250
654937
654034
652189
652763
654598
658525
665347
678151
701526
760712
823594
910634
1.52528e+06
1.02957e+06
835076
742315
701580
680688
670089
664729
661921
660978
660834
660629
663361
664383
663291
661004
662056
664290
669554
680071
700234
739784
831191
1.02657e+06
1.52073e+06
2.91043e+06
1.39385e+06
963811
805858
738765
707286
691923
684037
680344
679142
678743
678341
681592
683003
682040
679818
680846
683589
690174
704675
734743
798337
947284
1.35393e+06
2.87076e+06
5.6211e+06
2.34903e+06
1.31591e+06
967400
823473
765787
739799
727536
722211
720032
719023
718486
721808
723605
723110
721938
723167
727231
737607
761835
817666
954385
1.28065e+06
2.28387e+06
5.59875e+06
5.41334e+06
4.8328e+06
2.43203e+06
1.50026e+06
1.06322e+06
924656
867349
841716
830790
826140
824346
823669
826064
828205
828958
830406
833946
843349
867958
926040
1.06443e+06
1.47171e+06
2.30756e+06
4.88607e+06
5.37065e+06
4.89285e+06
4.69402e+06
4.93031e+06
4.34597e+06
1.83907e+06
1.43583e+06
1.28122e+06
1.21382e+06
1.1882e+06
1.17793e+06
1.17417e+06
1.17316e+06
1.1741e+06
1.17633e+06
1.17997e+06
1.18655e+06
1.19965e+06
1.2291e+06
1.30823e+06
1.49634e+06
1.98772e+06
4.40893e+06
4.90774e+06
4.75983e+06
4.80509e+06
4.12952e+06
4.27299e+06
4.79457e+06
4.77247e+06
4.50582e+06
3.35402e+06
3.00726e+06
2.70049e+06
2.56822e+06
2.51898e+06
2.49874e+06
2.49032e+06
2.48704e+06
2.49083e+06
2.5025e+06
2.52802e+06
2.58271e+06
2.71676e+06
3.07286e+06
3.43923e+06
4.47816e+06
4.75421e+06
4.80511e+06
4.42907e+06
4.37135e+06
3.75049e+06
3.79621e+06
4.42425e+06
5.01688e+06
6.29667e+06
7.32707e+06
7.85267e+06
7.80289e+06
7.85348e+06
7.7762e+06
7.76322e+06
7.71595e+06
7.71752e+06
7.71839e+06
7.75217e+06
7.77405e+06
7.85665e+06
7.81349e+06
7.93979e+06
7.43698e+06
6.3505e+06
5.07561e+06
4.53698e+06
3.95118e+06
3.98451e+06
2.9429e+06
3.28192e+06
4.30374e+06
5.13811e+06
6.28397e+06
7.14708e+06
7.5939e+06
7.5188e+06
7.41775e+06
7.33685e+06
7.29915e+06
7.2678e+06
7.2646e+06
7.26399e+06
7.29903e+06
7.3379e+06
7.42653e+06
7.50302e+06
7.58589e+06
7.20607e+06
6.39753e+06
5.20922e+06
4.38664e+06
3.40582e+06
3.11576e+06
2.18351e+06
2.85137e+06
4.15959e+06
4.99405e+06
5.59086e+06
6.14917e+06
6.41245e+06
6.40056e+06
6.3617e+06
6.34183e+06
6.32679e+06
6.31598e+06
6.31182e+06
6.31427e+06
6.32552e+06
6.33764e+06
6.35949e+06
6.38101e+06
6.3515e+06
6.11638e+06
5.67498e+06
5.14706e+06
4.17515e+06
2.69913e+06
2.01019e+06
1.09954e+06
1.83913e+06
3.49877e+06
4.12073e+06
4.5424e+06
4.86193e+06
5.05612e+06
5.21493e+06
5.37019e+06
5.50479e+06
5.58861e+06
5.62852e+06
5.64103e+06
5.62535e+06
5.58003e+06
5.49246e+06
5.37211e+06
5.22189e+06
5.06252e+06
4.86609e+06
4.56125e+06
4.16742e+06
3.54069e+06
1.85808e+06
1.08824e+06
521506
1.15953e+06
2.59308e+06
3.13915e+06
3.44814e+06
3.81774e+06
4.19777e+06
4.4768e+06
4.70314e+06
4.86258e+06
4.95644e+06
5.0083e+06
5.02761e+06
5.01055e+06
4.95911e+06
4.86463e+06
4.71899e+06
4.5014e+06
4.21023e+06
3.81785e+06
3.45704e+06
3.14655e+06
2.57769e+06
1.16974e+06
519587
614956
1.065e+06
1.70341e+06
2.23517e+06
2.63742e+06
3.08515e+06
3.53193e+06
3.86835e+06
4.12042e+06
4.28149e+06
4.37828e+06
4.43582e+06
4.45699e+06
4.44017e+06
4.38577e+06
4.28872e+06
4.13327e+06
3.88181e+06
3.52693e+06
3.05677e+06
2.60745e+06
2.19586e+06
1.65688e+06
1.00982e+06
604150
989132
1.01589e+06
1.18469e+06
1.70839e+06
2.07882e+06
2.58147e+06
3.00311e+06
3.32949e+06
3.57963e+06
3.74008e+06
3.84027e+06
3.89884e+06
3.92066e+06
3.90105e+06
3.84407e+06
3.74351e+06
3.58511e+06
3.33254e+06
2.99101e+06
2.55221e+06
2.03768e+06
1.66769e+06
1.1457e+06
982089
988474
1.32849e+06
1.04056e+06
1.06025e+06
1.36841e+06
1.70556e+06
2.21268e+06
2.57439e+06
2.86758e+06
3.10235e+06
3.25653e+06
3.35477e+06
3.41335e+06
3.434e+06
3.41173e+06
3.35359e+06
3.25303e+06
3.09588e+06
2.8591e+06
2.55716e+06
2.19025e+06
1.66985e+06
1.33298e+06
1.03855e+06
1.01042e+06
1.3254e+06
1.40225e+06
1.07146e+06
1.06653e+06
1.21416e+06
1.48968e+06
1.89377e+06
2.20506e+06
2.47859e+06
2.68729e+06
2.82503e+06
2.92038e+06
2.97739e+06
2.99884e+06
2.97525e+06
2.91761e+06
2.81698e+06
2.67297e+06
2.46139e+06
2.17407e+06
1.86847e+06
1.46734e+06
1.18532e+06
1.04363e+06
1.04814e+06
1.33928e+06
1.40157e+06
1.12243e+06
1.0841e+06
1.14226e+06
1.34291e+06
1.63793e+06
1.90079e+06
2.14635e+06
2.3308e+06
2.45707e+06
2.54545e+06
2.60129e+06
2.61735e+06
2.59893e+06
2.54367e+06
2.44817e+06
2.31785e+06
2.12811e+06
1.87162e+06
1.60809e+06
1.3236e+06
1.11658e+06
1.06134e+06
1.11009e+06
1.35527e+06
1.40861e+06
1.20731e+06
1.12055e+06
1.11413e+06
1.2361e+06
1.44004e+06
1.6585e+06
1.86919e+06
2.02738e+06
2.14114e+06
2.22381e+06
2.26788e+06
2.28555e+06
2.26566e+06
2.21819e+06
2.13007e+06
2.01051e+06
1.84729e+06
1.63107e+06
1.41547e+06
1.22222e+06
1.09408e+06
1.09848e+06
1.21019e+06
1.37273e+06
1.43144e+06
1.36072e+06
1.16652e+06
1.11487e+06
1.16224e+06
1.29311e+06
1.46702e+06
1.63887e+06
1.77456e+06
1.87623e+06
1.94775e+06
1.98752e+06
1.99927e+06
1.98449e+06
1.93848e+06
1.8637e+06
1.75704e+06
1.61671e+06
1.44183e+06
1.26386e+06
1.14149e+06
1.09497e+06
1.14626e+06
1.35519e+06
1.4123e+06
1.48704e+06
1.47854e+06
1.19507e+06
1.11429e+06
1.11047e+06
1.17852e+06
1.30738e+06
1.4439e+06
1.55627e+06
1.64504e+06
1.70977e+06
1.74186e+06
1.75515e+06
1.73865e+06
1.70238e+06
1.63555e+06
1.54317e+06
1.42749e+06
1.2891e+06
1.1599e+06
1.09169e+06
1.0945e+06
1.16753e+06
1.44142e+06
1.49515e+06
1.60241e+06
1.52369e+06
1.21946e+06
1.10837e+06
1.07728e+06
1.09825e+06
1.18517e+06
1.28799e+06
1.3799e+06
1.45459e+06
1.50659e+06
1.53782e+06
1.54641e+06
1.53392e+06
1.50007e+06
1.44455e+06
1.3659e+06
1.27072e+06
1.167e+06
1.07906e+06
1.0585e+06
1.08698e+06
1.18837e+06
1.4811e+06
1.66185e+06
1.83064e+06
1.57847e+06
1.23405e+06
1.09187e+06
1.04191e+06
1.03918e+06
1.0856e+06
1.15713e+06
1.22762e+06
1.28844e+06
1.33524e+06
1.35852e+06
1.36793e+06
1.35372e+06
1.32768e+06
1.27911e+06
1.21461e+06
1.14088e+06
1.06764e+06
1.01966e+06
1.02122e+06
1.07032e+06
1.21803e+06
1.56744e+06
1.77548e+06
1.85076e+06
1.64397e+06
1.26074e+06
1.07664e+06
1.00265e+06
984770
1.00488e+06
1.05205e+06
1.1036e+06
1.15202e+06
1.18727e+06
1.2097e+06
1.21569e+06
1.2066e+06
1.18159e+06
1.14399e+06
1.09379e+06
1.04028e+06
992102
970127
986486
1.0607e+06
1.2456e+06
1.65364e+06
1.83195e+06
1.84854e+06
1.68492e+06
1.30748e+06
1.07468e+06
969990
939093
937393
965530
999040
1.03257e+06
1.06286e+06
1.07826e+06
1.08564e+06
1.07654e+06
1.05788e+06
1.02581e+06
988823
953864
924181
925453
955057
1.0607e+06
1.29e+06
1.70924e+06
1.83097e+06
1.83747e+06
1.68737e+06
1.36616e+06
1.07692e+06
940609
892012
881585
892240
914057
937446
957068
970847
974842
969182
951678
930426
904957
882504
868373
879056
928080
1.06575e+06
1.37293e+06
1.71219e+06
1.82663e+06
1.8146e+06
1.68652e+06
1.48743e+06
1.08952e+06
920201
851279
829798
827243
838516
851423
867035
875140
879607
873874
862884
846068
831577
819571
821748
841634
909565
1.07543e+06
1.47062e+06
1.70242e+06
1.81254e+06
1.76972e+06
1.68245e+06
1.58037e+06
1.11911e+06
913095
817151
782382
774317
776938
783157
791043
797621
799250
796169
787127
778565
771089
766607
773375
808117
906055
1.10105e+06
1.5952e+06
1.68391e+06
1.78316e+06
1.73956e+06
1.66308e+06
1.57841e+06
1.15071e+06
915073
790350
740972
724394
721351
721751
725397
728367
729857
726181
722170
717577
715653
718489
734755
783068
910251
1.14983e+06
1.59688e+06
1.64512e+06
1.72965e+06
1.708e+06
1.6225e+06
1.57319e+06
1.21636e+06
925731
773171
705739
681702
673802
671644
670716
671896
671436
670039
667981
668473
670035
676344
699186
767168
917830
1.21954e+06
1.58422e+06
1.59053e+06
1.6964e+06
1.67137e+06
1.56307e+06
1.55869e+06
1.34785e+06
952268
773360
681018
644112
630112
624096
621571
620139
620119
619189
619883
621658
626525
639975
675517
767698
940015
1.36014e+06
1.55987e+06
1.53649e+06
1.65932e+06
1.64363e+06
1.51425e+06
1.51978e+06
1.35509e+06
984925
776503
665985
615452
595147
586594
580593
578207
577051
577887
578865
584189
592017
609978
658576
774895
987038
1.36577e+06
1.5112e+06
1.49417e+06
1.62066e+06
1.60869e+06
1.47207e+06
1.44222e+06
1.35146e+06
1.05413e+06
790039
666192
592744
563196
549508
543255
539209
538596
539052
541962
547768
560417
589249
657338
785184
1.06132e+06
1.35795e+06
1.41773e+06
1.45918e+06
1.58982e+06
1.5645e+06
1.4338e+06
1.36219e+06
1.33844e+06
1.19333e+06
819230
669926
581003
540226
522957
512211
508341
506129
507590
510921
520984
537735
576660
660312
809258
1.21234e+06
1.33972e+06
1.34391e+06
1.42986e+06
1.54899e+06
1.53031e+06
1.40427e+06
1.30036e+06
1.30358e+06
1.19281e+06
861450
675924
581128
523980
496189
484311
478503
477176
477558
483167
494053
520102
576871
673293
860813
1.21284e+06
1.30131e+06
1.2903e+06
1.40072e+06
1.50167e+06
1.47957e+06
1.37785e+06
1.25299e+06
1.23417e+06
1.18498e+06
950411
694820
584460
518534
482032
462008
455383
452339
454642
460456
479564
512656
579025
695363
949263
1.19752e+06
1.22944e+06
1.24366e+06
1.37331e+06
1.46664e+06
1.42555e+06
1.34872e+06
1.2186e+06
1.16874e+06
1.16325e+06
1.05087e+06
732806
594094
519192
467041
443461
432841
430304
432192
442022
463870
513169
586326
739847
1.06025e+06
1.16397e+06
1.16291e+06
1.21087e+06
1.34684e+06
1.42457e+06
1.38528e+06
1.31489e+06
1.19172e+06
1.11702e+06
1.11437e+06
1.04642e+06
798778
611202
521222
466791
433569
418344
412605
417408
431472
463879
517547
606263
834391
1.05498e+06
1.09737e+06
1.10935e+06
1.18697e+06
1.31112e+06
1.3759e+06
1.34337e+06
1.28103e+06
1.17327e+06
1.07381e+06
1.04808e+06
1.03246e+06
936116
648502
530169
468130
432701
408184
400722
407126
428660
464810
527451
640420
935888
1.03355e+06
1.03357e+06
1.0661e+06
1.16967e+06
1.27675e+06
1.34329e+06
1.29659e+06
1.2378e+06
1.15299e+06
1.04809e+06
999351
999900
935469
724722
551730
472741
433301
407530
395361
406674
429121
468365
550710
709059
932553
987693
985587
1.0403e+06
1.15118e+06
1.23989e+06
1.30063e+06
1.25568e+06
1.20187e+06
1.13302e+06
1.02843e+06
958629
941685
924093
843614
593327
482764
434965
407922
395827
407171
432071
479825
603300
846301
921728
933302
949702
1.02444e+06
1.1319e+06
1.20101e+06
1.25135e+06
1.17376e+06
1.14909e+06
1.10302e+06
1.01418e+06
933888
895951
898069
841861
681228
506034
441609
410027
397856
409031
439563
503365
707382
844764
895262
892215
928713
1.01145e+06
1.10231e+06
1.14692e+06
1.16715e+06
1.04401e+06
1.07761e+06
1.06049e+06
991752
913948
856328
849338
831297
765209
556553
459464
416148
403264
414811
457973
554054
765950
833387
848758
854875
912118
990958
1.05934e+06
1.07708e+06
1.04028e+06
76229.2
76926.5
77144.6
77467.4
77646.9
77706.1
77758
78083.6
78391.4
78914.9
79390.2
79804.2
80111
80344.6
80591.8
80956.6
80979.8
80777
80730
81222.1
85915.6
115296
159848
166864
166583
165907
165080
164806
165990
167316
76724.5
77322.5
77479.9
77927.8
78179.3
78288.3
78373.1
78701.1
79089.7
79672.2
80235.3
80744.9
81107.7
81402.5
81598.6
81554
81324.6
81357.7
81675.7
84707
101347
145166
158399
162655
163290
162833
161978
161659
162518
163082
77178.9
77749.2
77893.6
78449.4
78711.7
78853.4
78991.9
79406.1
79820.9
80296.4
80712.3
81200
81636.3
81926.1
82056.3
81787.3
81553.7
81716.4
83211.9
91511.4
136920
153361
157345
158502
158586
158366
158284
158326
159219
159910
77678.6
78276.3
78447
79057
79293.4
79497.4
79754.2
80145.7
80374
80725.3
81141.1
81590
81949.3
82160.2
82234.4
81871.9
81746.6
82269.7
86367.8
114878
149322
154744
155913
155830
155284
155047
154921
155089
156034
156877
78280.7
78966.5
79139.9
79722.8
79919.8
80160.8
80359.7
80603.6
80839.7
81095.1
81344.6
81761.1
82066.6
82221.2
82267.2
81959.8
82114.3
83783.3
96487.5
141817
153513
154783
154843
154080
153284
152895
152784
153185
154116
154848
78892.8
79796.5
79882.3
80384.7
80517.8
80660.2
80765.8
80967.5
81118.5
81266.1
81407.6
81803
82080.9
82197.1
82056.6
82136.1
82813.6
88284.1
124436
151788
155066
154697
153924
152582
151860
151479
151337
151558
152407
152813
79668.4
80691.9
80606.1
80933.7
80960.9
81019.3
81132.4
81227.9
81242
81309.1
81403.6
81671.7
81789.4
81745.2
81666.7
82290.7
84830.5
102842
147082
156023
155676
154386
152732
151260
150502
150176
150053
150187
150553
150662
80592
81487.6
81275.4
81369.8
81327.3
81387.2
81411.1
81438.5
81278.1
81210
81150.4
81209.5
81159.6
80961.3
81571.3
82999
90585
131314
157149
159393
155779
153551
150973
149721
148973
148557
148351
148333
148583
148460
81533
82088.4
81809.5
81709.2
81658.3
81821.8
81749.8
81491.8
81292.8
80999.8
80778
80442.5
80304.9
80681.8
81697.8
85847.2
110345
157454
165101
160803
155791
151854
149310
147757
146946
146316
146001
145932
146066
145747
82258.1
82535.2
82180.6
82020.8
82042.1
81994.7
81845.4
81495.7
80930.4
80431.6
80090.6
79965.3
79983.1
80629.3
82925.5
95518.4
152304
171850
169487
161453
155562
150160
147340
145547
144424
143563
143105
142993
143054
142653
82777.9
82880.5
82475.8
82273
82142.7
82027.5
81824.6
81297.9
80624.8
80133.9
79863.8
79784
79914
81207.5
88676.9
133784
173795
178489
171171
161694
154445
148497
145189
143093
141676
140584
140052
139947
139993
139513
83120.5
83120.4
82691
82414.6
82155.3
81946.3
81619
81169.8
80522.1
80052.1
79837.7
79804.5
80369
85018.3
115214
173465
184115
181161
171678
161753
152421
146557
142812
140391
138692
137526
136996
136921
136956
136464
83376.5
83274.4
82792
82513.8
82082.8
81812.3
81588
81153.5
80578.9
80298.2
80310.2
80746.5
83884.4
103718
170535
187396
188509
181656
171785
161429
150236
144272
140091
137471
135554
134409
133922
133868
133873
133374
83513.7
83383.9
82845
82574.6
82070.8
81798.5
81654.3
81646.7
81970.5
82549.1
83722.4
86744.8
102722
166666
188722
191934
189588
181612
171357
159641
147863
141572
137108
134392
132326
131255
130818
130750
130681
130201
83577.6
83473.6
82912.1
82592.1
82181.6
82326.6
83367.7
85742
89155.3
92905.4
101665
118815
166599
188094
192933
193106
189561
179332
168286
157115
145129
138359
133997
131182
129103
128073
127665
127588
127364
126951
83688.7
83600.5
82999.1
82848.9
83522.7
86483.5
93201.4
107551
126583
141337
151436
164133
184834
191642
193465
193020
186506
172835
163794
154215
141920
134881
130762
127871
125836
124859
124487
124411
124014
123667
83811.9
83669.8
83401.7
84594.7
90433
109674
142702
160021
163756
164169
165460
174066
186790
190730
190573
187732
178021
165191
158870
150313
138175
131270
127406
124388
122524
121653
121339
121268
120712
120387
84272
84284.6
85977
94735.3
132345
166574
173747
174879
172117
168754
167429
174970
181794
182544
181731
177875
166910
157247
152133
145121
134012
127516
123828
120780
119235
118525
118255
118165
117499
117182
84120.4
85645.2
95352.7
146793
176888
181805
180975
178075
173593
169286
166804
169791
171140
170226
168333
165022
153674
147639
143651
138721
129253
123598
119905
117339
116067
115473
115204
115073
114384
114069
86432.3
94278.3
149422
181795
185410
184622
182297
178197
171649
164960
160479
160720
158389
155188
152351
148389
140184
136971
134622
131419
124118
119392
115944
113888
112873
112403
112182
112018
111326
111011
89789.9
136139
182844
186456
186081
183954
179648
174228
168170
159503
154637
151419
145046
139922
137184
132747
128195
126256
125496
123674
118701
114761
111882
110416
109698
109361
109199
109039
108318
107982
119601
180988
187262
186222
183784
181191
178571
172407
166150
155797
149073
143949
136298
128673
124887
120082
118011
116938
116354
115991
112854
109657
107850
106952
106526
106333
106216
106109
105403
105062
153335
185657
179192
180823
178871
178296
173343
164703
156295
148738
144347
136878
133240
120724
114565
111251
109870
109199
108959
108904
106262
104675
103928
103606
103474
103424
103343
103316
102700
102361
223147
184107
177158
175905
171557
170291
168023
159979
150664
145310
138413
133800
131972
116298
109173
105619
103637
102664
102212
102026
101002
100558
100443
100430
100526
100562
100572
100645
100164
99868
176455
158539
169049
170946
167648
166071
162963
154070
148666
143263
136130
132718
131148
113475
105298
101243
99144.7
97764.3
97041.2
96688.8
96450.8
96384.2
96747.5
97290.5
97608.6
97819.9
98025.7
98184.2
97824.1
97597.5
167493
166183
164970
165236
166057
166719
166993
159978
115438
85998.9
81356.6
80913.8
80998.3
81198.3
81196.1
80945.3
80771.7
80609.1
80204.3
79737.5
79229.9
78685.4
78397.4
78049
78008.1
77941.4
77745.9
77391.1
77161.4
76388.4
163171
162607
161761
162084
162938
163399
162762
158494
145137
101248
84865.1
81935
81677
81738.8
82102.8
82114.6
81849.2
81471.2
81090.2
80529.9
80044.4
79466.7
79084
78725.3
78627.5
78487.4
78200
77717.5
77551.7
76911.9
160009
159285
158390
158344
158427
158651
158578
157413
153331
136552
91585.4
83430.9
82077.2
82058.6
82440.5
82650.1
82448.3
82059.5
81558.5
80977.9
80664.2
80240.9
79862
79425.9
79233.7
79036.4
78737.9
78131.7
77988.8
77374
156889
156019
155078
154914
155046
155306
155921
156014
154922
149281
114243
86635.7
82640.4
82271.1
82558.8
82863.5
82725.3
82404.9
81974.9
81507.3
81156
80843
80628.5
80318.4
80010.7
79672.8
79375.2
78709
78545.6
77914.5
154768
154020
153072
152719
152851
153295
154194
155071
155191
154073
142100
96760.5
84315.9
82736.2
82641.1
82907.8
82800.4
82536.8
82152.1
81766.8
81562.6
81336
81107.1
80796.5
80691.1
80405
80095.9
79432.1
79279.6
78566.3
152681
152296
151447
151276
151447
151896
152737
154239
155273
156100
152853
125084
88941.2
83485.4
82830
82726
82786.9
82557.4
82192.9
81854.8
81745.6
81584.2
81472.1
81216.6
81024.3
80930.3
80804
80227.6
80164.1
79229.2
150535
150446
150107
150010
150172
150583
151489
153155
155103
156902
157798
148563
103690
85621.5
82964.6
82176
82311.9
82276.2
82050.1
81856.8
81787.5
81671
81635.8
81566
81392.8
81324.6
81325.3
81000.7
81118.3
80036.2
148352
148505
148276
148310
148583
149135
150051
151531
154452
157076
161149
158973
132788
91564.7
83689.8
82071.9
81389
81583.8
81593.5
81585.7
81611.2
81674.7
81679.8
81759.6
81733.8
81659.5
81716.1
81679.4
81940.5
80997.1
145660
146008
145903
146019
146443
147184
148156
149920
152975
157108
162522
167182
159688
111738
86455.6
82184.2
81022.4
80587.6
80736.5
81010.4
81253.5
81498
81707
81912
81923.2
81899.6
82003.5
82171.4
82540.5
81968.9
142618
143053
143016
143173
143746
144756
146051
148002
151270
156995
163134
171092
173304
154172
96294.9
83395.4
80945
80221.6
80214.1
80333.8
80644.7
81110.7
81679.2
82005.6
82159.7
82121.1
82230
82501
82932.3
82663.1
139531
140049
140032
140184
140827
142113
143657
145907
149550
156012
163348
172573
179684
175047
135617
89274.3
81515.9
80154.2
80035
80106.2
80359.8
80836.3
81418.6
81941.4
82271.9
82322
82419.7
82743.1
83199.1
83095.9
136541
137074
137074
137197
137840
139201
141002
143613
147601
153909
163391
173004
182217
185102
174763
117450
85543.3
80662.2
80076
80095.6
80294.3
80742.7
81350.1
81800.6
82225
82441
82583.6
82912.7
83362.3
83336.6
133533
134056
134089
134193
134788
136123
138148
140965
145308
151511
162886
173088
182672
189378
188374
172242
106603
84580.5
81244.3
80712.5
80646.3
80852.2
81370.8
81813.7
82108
82441.4
82736.5
83019.6
83464.4
83518.6
130438
130917
131028
131149
131692
132943
135097
137989
142661
149121
160811
172411
182600
190398
192691
189758
169372
106583
88413.3
84966.7
83480.6
82686.9
82154.9
82004.5
82140.5
82432.2
82904.8
83115.6
83549.4
83643.8
127234
127649
127926
128029
128514
129684
131946
134849
139458
146341
158150
168914
180129
190345
193715
193539
189005
169007
125318
108121
96695.5
91513.2
87445.8
84418.4
82926.9
82597.5
82948.4
83243.6
83669.6
83727.4
123975
124322
124776
124870
125301
126393
128619
131586
135841
143127
155091
164249
173425
187027
193533
193913
192016
185208
164562
154091
147917
135234
115839
96605.6
88284.7
84330.9
83320.8
83375.7
83866.5
83888.8
120729
121037
121643
121723
122085
123064
125129
128159
132091
139244
150932
159152
165531
178304
187739
190342
190552
186756
173092
165788
165245
165684
163734
152239
118809
93141.8
85592.5
83895.8
84028.8
84122.1
117553
117866
118550
118631
118924
119734
121487
124518
128253
134797
145442
152216
157275
166920
177622
181128
181736
181025
173839
167376
168623
172239
176046
175900
170539
143351
98240.8
87129
84828.8
84717.9
114472
114787
115480
115585
115844
116484
117861
120611
124243
129813
138730
143496
147407
153341
164336
167200
168996
170157
168722
166688
168966
173398
178621
181606
183186
179718
158017
99179
86686.9
84717.5
111417
111736
112432
112549
112768
113259
114335
116522
119933
124388
131129
134260
136444
139577
147670
151210
153884
157393
159857
160268
164724
171849
178732
182644
185623
186344
184343
160469
97406.5
87427.3
108363
108696
109414
109532
109687
110022
110774
112336
115307
118635
123152
124988
125692
127512
132034
136060
138928
144145
150591
153837
159642
168059
174593
180621
184411
186424
187650
185685
147471
91902.3
105384
105719
106429
106526
106614
106800
107217
108111
109945
112698
115496
115776
116314
117462
119765
123957
128129
136346
142228
148606
156140
165473
172409
179621
182059
184430
186447
189230
185580
127616
102627
102961
103572
103580
103617
103649
103755
104044
104737
106132
108533
108563
108766
109428
110902
113993
120729
133444
136100
142824
149640
156681
164107
172264
178306
179302
181791
180647
188174
163223
100086
100385
100820
100744
100704
100615
100428
100430
100537
100955
101869
102010
102427
103340
105133
108683
116112
132010
133252
136995
144347
149930
158890
167116
169792
171209
175185
177413
185597
233439
97763.6
97990
98323.4
98147.9
97896
97645.5
97236.4
96646.8
96164.2
96255.2
96535.5
96858.1
97528.7
98708.1
100891
105008
113228
130733
132103
135147
141617
148152
152879
161848
165069
166829
170338
169740
162709
182379
70637
70637.1
70643.5
71108.6
83949.7
302711
858133
1.11299e+06
1.1709e+06
1.17937e+06
1.16484e+06
1.15835e+06
1.15625e+06
1.17133e+06
1.22523e+06
1.28534e+06
1.36682e+06
1.43838e+06
1.47212e+06
1.485e+06
1.48787e+06
1.48689e+06
1.44811e+06
1.42888e+06
1.39563e+06
1.35391e+06
1.31792e+06
1.27974e+06
1.23578e+06
1.19389e+06
1.15781e+06
1.12531e+06
1.10338e+06
1.0861e+06
1.06869e+06
1.05248e+06
1.0356e+06
1.01916e+06
1.00372e+06
991462
980423
968413
953390
932603
905317
871389
831445
786380
737911
687172
637531
590800
547601
508057
471520
436962
404628
374822
347871
324271
303651
285323
269153
255152
243169
232940
223960
215846
208199
200705
193200
185742
178568
171809
165506
159610
154127
149007
144177
139569
135209
131129
127300
123654
120150
116814
113700
110863
108304
106004
103929
102033
100292
98697.6
97241.3
95895.1
94627.7
93409
92227.1
91094.2
90047.3
89114.9
88306.5
87608.9
87002.3
86474.6
86001.1
85563.8
85190.6
84883.8
84684.9
84591.3
84573.4
84580.2
84619.6
84765
85156.8
86007
87191.1
88049.8
89175
90530.2
92059
93767.4
95659.6
70637
70637.1
70643.7
71040.6
81850.1
282053
826538
1.09652e+06
1.15849e+06
1.16715e+06
1.15059e+06
1.14166e+06
1.13933e+06
1.13912e+06
1.16656e+06
1.2455e+06
1.32227e+06
1.38268e+06
1.41018e+06
1.4215e+06
1.42577e+06
1.42698e+06
1.42293e+06
1.3929e+06
1.34648e+06
1.32448e+06
1.29592e+06
1.25649e+06
1.21084e+06
1.17316e+06
1.14403e+06
1.1187e+06
1.09831e+06
1.08118e+06
1.06507e+06
1.05014e+06
1.03476e+06
1.01864e+06
1.00307e+06
987367
972722
958696
944436
924660
896539
862000
820629
772300
721814
672522
626408
580778
537629
497690
460278
425132
393703
366089
341049
319562
301402
284828
269582
255958
244101
233874
224799
216542
208697
201031
193406
185847
178605
171800
165449
159514
153996
148840
143971
139320
134924
130811
126967
123333
119868
116589
113540
110771
108272
106003
103946
102066
100328
98730.1
97270.8
95919.9
94636.4
93393.2
92172.6
90946
89763
88704.8
87822.8
87108.6
86500.3
85972.1
85499.8
85067.9
84702.8
84405.3
84208.6
84118.1
84094.8
84101.6
84149.5
84336
84812.5
85799.5
86868
87761.8
88965.3
90390.7
92007.1
93802.1
95775.8
70637
70637.1
70640.6
70846.3
76825.8
218099
736310
1.05406e+06
1.12722e+06
1.13533e+06
1.12625e+06
1.12401e+06
1.12661e+06
1.14498e+06
1.18423e+06
1.2239e+06
1.3002e+06
1.3357e+06
1.36055e+06
1.37222e+06
1.37743e+06
1.37891e+06
1.37363e+06
1.34202e+06
1.31999e+06
1.30581e+06
1.2821e+06
1.24528e+06
1.20504e+06
1.17029e+06
1.14205e+06
1.11949e+06
1.09926e+06
1.08189e+06
1.06655e+06
1.05291e+06
1.03808e+06
1.02248e+06
1.00911e+06
1.0003e+06
993683
984089
966950
945809
913613
875970
830526
772134
711552
650440
603198
557941
515776
476173
441070
410706
384264
360514
339065
319568
301885
285917
271817
258905
247273
236969
227683
219215
211157
203295
195545
187881
180531
173653
167233
161215
155598
150342
145377
140655
136197
132015
128103
124399
120859
117494
114353
111490
108901
106544
104423
102514
100757
99139.6
97652
96266.2
94951.6
93669.7
92405.9
91188.9
90030
88931.8
87934.1
87093.6
86388.3
85791.1
85276.8
84825
84439.3
84125.8
83925.8
83833.8
83802.8
83813.3
83875.3
84082.2
84576.9
85597.9
86613.2
87553.1
88816.4
90287.1
91977
93892.8
96019.6
70637
70637
70638.3
70701.7
73071.6
142286
583455
1.00469e+06
1.11041e+06
1.12259e+06
1.12121e+06
1.12286e+06
1.13636e+06
1.14479e+06
1.16209e+06
1.22434e+06
1.28157e+06
1.31161e+06
1.34252e+06
1.35651e+06
1.36081e+06
1.36156e+06
1.35019e+06
1.31929e+06
1.29141e+06
1.26148e+06
1.23834e+06
1.21684e+06
1.19304e+06
1.17053e+06
1.14706e+06
1.12605e+06
1.10692e+06
1.09221e+06
1.07902e+06
1.06803e+06
1.05769e+06
1.04743e+06
1.03779e+06
1.02627e+06
1.00967e+06
989878
957399
918410
871188
827128
781236
732880
687455
643397
582874
535609
498417
460964
429833
400778
374642
352669
334772
318115
301769
286782
273672
262456
251989
242152
233155
224551
216096
207794
199862
192022
184458
177426
170865
164681
158862
153433
148286
143419
138812
134465
130397
126543
122853
119327
116014
112971
110199
107660
105363
103299
101421
99699.2
98111.4
96647.8
95249.3
93877.4
92562.1
91330.5
90130.3
88972.1
87881.7
86875
85982.1
85223.9
84604.6
84089.9
83654.4
83300
83066.3
82936.2
82882.4
82893.2
82957.7
83193.3
83765.6
84922.8
85819.1
86824.4
88167.4
89705
91503.3
93514
95743.1
70637
70637
70637.4
70652
71379.6
92294.8
379561
916783
1.09843e+06
1.12792e+06
1.13185e+06
1.13298e+06
1.13198e+06
1.13165e+06
1.14122e+06
1.21341e+06
1.28907e+06
1.32892e+06
1.34806e+06
1.35709e+06
1.35887e+06
1.35705e+06
1.3373e+06
1.3108e+06
1.27989e+06
1.24176e+06
1.19915e+06
1.16514e+06
1.14965e+06
1.13983e+06
1.13198e+06
1.12193e+06
1.11053e+06
1.09982e+06
1.08895e+06
1.07702e+06
1.06193e+06
1.0444e+06
1.02389e+06
999640
978525
944523
921574
887784
841838
790676
732309
673470
611014
580527
537520
493005
458569
429591
404955
385104
362890
344139
328710
315018
301769
289303
276968
265332
255120
246319
238469
230913
223695
216406
208443
200047
191999
184727
177903
171442
165374
159642
154145
148788
143766
139022
134536
130249
126156
122308
118716
115406
112404
109703
107217
104884
102766
100818
99041
97409.9
95852.3
94347.3
92935.9
91665.2
90398
89142.1
88008.9
86968.4
86094.2
85328
84583.9
83897.7
83319.1
82909.7
82620.4
82391.6
82228.8
82167.6
82194.6
82361.4
82815.4
83739.8
84542.9
85631.9
86988.1
88616
90545.1
92748.2
95232.8
70637
70637
70637.1
70640.6
70838
76805.7
221214
763128
1.07173e+06
1.14041e+06
1.15447e+06
1.15738e+06
1.15145e+06
1.14699e+06
1.17208e+06
1.27328e+06
1.32655e+06
1.34939e+06
1.35588e+06
1.35547e+06
1.35672e+06
1.35711e+06
1.34902e+06
1.32202e+06
1.28042e+06
1.23719e+06
1.19141e+06
1.1479e+06
1.12665e+06
1.11426e+06
1.10761e+06
1.10097e+06
1.09675e+06
1.09157e+06
1.08479e+06
1.07419e+06
1.05921e+06
1.04815e+06
1.0279e+06
1.00687e+06
978982
959213
932995
890742
836740
781231
725652
662781
585147
524567
486987
453739
425263
403274
384470
362942
349040
337177
324108
310061
300243
289067
278773
270203
260431
251515
244315
238451
232956
226893
220329
213756
206820
199545
192257
185179
178447
171960
165607
159500
153713
148174
142852
137690
132751
128023
123558
119581
115981
112760
109890
107292
104944
102880
100925
98966.2
97081.3
95347.6
93785.5
92295.8
90900.4
89595.2
88331.6
87276.4
86328.4
85456.7
84667.5
83960.6
83395.5
82755.6
82161.8
81630.5
81183.9
80990.9
81036.7
81266