/*--------------------------------*- C++ -*----------------------------------*\
| =========                 |                                                 |
| \\      /  F ield         | OpenFOAM: The Open Source CFD Toolbox           |
|  \\    /   O peration     | Version:  2112                                  |
|   \\  /    A nd           | Website:  www.openfoam.com                      |
|    \\/     M anipulation  |                                                 |
\*---------------------------------------------------------------------------*/
FoamFile
{
    version     2.0;
    format      ascii;
    arch        "LSB;label=32;scalar=64";
    class       volScalarField;
    location    "0.00686";
    object      k;
}
// * * * * * * * * * * * * * * * * * * * * * * * * * * * * * * * * * * * * * //

dimensions      [0 2 -2 0 0 0 0];

internalField   nonuniform List<scalar> 
13875
(
812.102
3462.66
3540.45
3539.33
3541.1
3540.43
3540.2
3539.83
3541.68
3542.36
3541.11
3540.81
3540.49
3540.12
3540.43
3541.21
3541.93
3541.12
3540.75
3540.24
3541.16
3538.99
3540.12
3460.51
820.445
881.794
2936.64
3013.07
3000.69
3000.76
2998.91
2996.58
2996.42
2996.64
2996.99
2996.26
2998.15
2996.46
2996.38
2996.17
2998.5
2996.25
2997.08
2996.97
2998.61
3000.45
2999.28
3011.61
2933.54
894.548
993.361
2710.85
2777.45
2755.35
2758.48
2755.85
2746.19
2743.8
2742.4
2741.14
2740.69
2744.14
2751.35
2752.22
2750.87
2744.66
2741.23
2742.69
2745.3
2755.1
2757.66
2753.17
2774.41
2706.44
998.487
1091.07
2533.66
2580.93
2561.45
2566.43
2563.31
2552.62
2549.9
2548.73
2546.75
2545.73
2548.12
2559.22
2560.06
2558.85
2548.69
2547.35
2547.53
2551.15
2562.93
2565.47
2559.41
2579.01
2529.6
1094.03
1172.11
2380.43
2413.07
2392.75
2397.74
2394.51
2383.44
2381.57
2380.51
2378.49
2377.6
2379.2
2390.22
2391.4
2389.9
2379.77
2379.21
2379.02
2382.34
2393.92
2396.77
2391.17
2410.34
2375.77
1177.56
1241.01
2237.1
2270.81
2244.71
2250.94
2246.06
2233.99
2232.66
2231.46
2229.41
2228.89
2229.7
2240.82
2242.27
2240.51
2230.22
2230.5
2229.9
2233.08
2245.7
2249.94
2243.73
2267.75
2247.51
1247.16
1320.99
2121.81
2158.18
2120.12
2122.9
2115.95
2101.9
2100.48
2099.12
2096.93
2096.75
2096.85
2108.16
2109.69
2107.57
2097.27
2098.57
2097.67
2101.55
2115.51
2121.67
2119.75
2153.97
2095.79
1323.11
1409.79
2000.73
2073.43
2019.31
2015.95
2002.89
1986.05
1983.46
1981.45
1979.02
1979.35
1978.5
1990.16
1991.97
1989.49
1978.86
1981.46
1980.55
1985.44
2002.19
2013.95
2017.97
2068.25
1992.77
1419.9
1691.48
2029.46
2021.82
1944.22
1924.6
1905.21
1884.06
1880.45
1877.89
1874.85
1875.79
1874.16
1886.1
1888.19
1885.51
1874.75
1878.17
1877.24
1883.37
1903.89
1922.41
1942.18
2017.85
2033.44
1716.39
2509.29
2285.45
2018.07
1900.91
1858.67
1826.81
1802.77
1797.83
1794.57
1791.23
1792.44
1790.47
1802.07
1804.39
1801.76
1792.2
1795.12
1795.24
1801.44
1824.77
1855.63
1891.59
2011.32
2265.93
2529.4
3877.09
3026.48
2153.74
1916.15
1815.62
1773.32
1746.27
1736.85
1731.98
1728.33
1729.25
1727.24
1737.92
1740.52
1738.67
1731.55
1733.67
1735.53
1745.24
1768.51
1813.37
1907.28
2129.74
2936.44
3858.54
5184.94
6451.82
2854.5
1994.68
1854.83
1757.71
1714.14
1699.07
1690.81
1686.57
1686.65
1684.91
1693.73
1696.73
1696.11
1691.79
1693.87
1698.87
1712.81
1758.17
1847.13
1972.35
2786.71
6316.32
5120.33
5056.39
7606.1
7062.08
3348.89
2048.26
1801.66
1744.1
1703.65
1686.48
1678.6
1676.35
1674.1
1680.47
1683.78
1685.16
1685.09
1691.83
1708.15
1747.99
1804.58
2088.64
3227.27
6755.48
7650.22
5009.85
4825.74
6348.94
7185.27
8765.24
5181.77
2334.44
1903.98
1788.53
1751.93
1747.55
1746.02
1744.15
1749.33
1752.5
1755.16
1757.46
1762.01
1796.13
1942.49
2484.37
5624.08
8152.86
6964.29
6332.82
4832.17
4603.49
5511.3
6049.12
7013.86
6859.6
6728.5
3424.28
2393.58
2146.84
2050.51
2011.34
1997.32
1997.89
2002.42
2013.99
2046.33
2137.45
2398.27
3605.81
6914.01
6825.49
6710.49
5975.8
5491.99
4681.87
4294.85
4802.73
5126.79
5915.37
6099.93
6590.06
5590.15
5152.06
4937.9
4300.32
4362.17
4418.34
4463.96
4449.47
4383.73
4284.83
4878.42
5393.72
5681.42
6668.42
6005.29
5719.87
5087.1
4787.02
4368.46
3736.67
4053.43
4363.55
5117.04
5663.72
6584.95
7510.9
7889.99
6885.72
6289.95
6579.52
6815.62
6961.13
6899.57
6662.95
6575.78
6893.43
7845.46
7564.87
6595.35
5503.18
4925.4
4251.19
3978.02
3730.11
3070.59
3413.46
3984.53
4912.09
5597.58
6200.38
7349.74
8107.73
6488.53
5388.4
5240.08
5290.91
5372.96
5333.01
5302.9
5682.01
6495.52
7755.02
7321.42
6316.06
5583.14
4835.35
3906.8
3361.1
3038.02
2633.62
3170.15
3917.72
5287.44
6090.22
5753.54
6196.08
6976.4
6121.27
5098.12
4691.31
4593.39
4596.32
4649.69
4787.41
5218.75
5945.72
6672.77
6208.17
5897.16
6327.81
5294.9
3903.88
3163.06
2638.73
2514.27
3371.19
4169.65
5464.62
5814.86
5252.46
5295.28
5876.8
5630.42
4915.03
4394.65
4107.56
4019.24
4186.16
4525.7
4975.66
5415.13
5627.07
5312.05
5412.86
5997.47
5370.57
4172.17
3396
2507.97
4715.18
6886.13
5680.97
4882.71
5020.52
4623.78
4610.48
5104.4
5125.95
4606.02
4052.88
3662.54
3535.77
3775.67
4212.6
4648.84
4915.77
4901.33
4630.54
4761.2
5170.09
4865.47
5846.11
6817.86
4906.41
11099.8
20345.8
6923.84
4241.3
4331.15
4079.84
4085.81
4514.52
4639.32
4238.67
3693.39
3261.56
3118.78
3380.85
3846.25
4258.41
4439.53
4357.34
4098.86
4183.96
4427.56
4266.02
7349.62
20785.8
11315.9
12258
15400.7
6134.66
3768.37
3795.9
3643.06
3647.23
4032.59
4186.85
3849.68
3335.19
2908.32
2758.87
3011.24
3465.41
3853.01
3996.29
3904.27
3652.49
3711.19
3850.87
3797.8
6265.31
15164.1
12180.7
11648.3
14923.4
5205.19
3415.41
3365.06
3262.41
3269.45
3611.43
3773.15
3468.45
2986.24
2587.65
2454.26
2689.51
3116.37
3479.62
3600.57
3498.61
3280.24
3322.23
3414.77
3467.59
5363.74
15291.5
11609.2
11233
14386.3
4638.94
3153.34
3034.25
2942.15
2961.5
3254.71
3400.32
3125.11
2685.5
2318.45
2198.28
2412.36
2808.82
3142.4
3249.42
3151.43
2966.34
2996.01
3086.9
3215.74
4838.65
15141.3
11266
10920
14457.7
4251.22
2917.98
2767.24
2672.42
2708.21
2950.82
3070.81
2821.3
2425.36
2090.41
1981.08
2172.73
2531.05
2834.3
2934.99
2851.6
2698.97
2708.94
2814.19
2970.02
4384.22
14799.6
11067.6
10782.2
13673.4
3862.7
2702.24
2545.63
2444.76
2492.18
2686.36
2768.66
2540.63
2191.04
1894
1797.19
1972.33
2296.68
2568.4
2665.53
2599.89
2473.83
2476.67
2598.83
2764.07
4006.98
14139.5
10923.1
10646
13260.6
3610.05
2525.52
2368.22
2260.57
2307.8
2460.82
2512.86
2303.66
1993.7
1727.87
1639.63
1797.21
2085.84
2329.8
2426.08
2381.37
2283.01
2282.26
2413.05
2579.64
3731.09
13850.8
10773.4
10437.9
13109
3434.13
2372.61
2216.99
2113.08
2148.54
2263.96
2288.61
2097.86
1824.35
1585.81
1504.28
1644.85
1899.67
2116.29
2213.1
2189.76
2116.68
2120.02
2247.83
2413.74
3495.23
13080.6
10658.8
10224.3
12481.6
3284.28
2242.25
2076.98
1988.7
2012.85
2088.72
2085.77
1909.13
1668.64
1459.9
1387.07
1516.89
1745.43
1938.88
2032.67
2025.86
1976.41
1987.56
2103.42
2277.01
3355.92
12747.9
10452.1
9919.89
11610.7
3158.7
2138.06
1960.52
1878.15
1893.77
1937.89
1913.88
1751.98
1539.13
1352.75
1285.55
1402.48
1604.96
1777.06
1870.34
1881.25
1855.81
1870.64
1976.19
2161.29
3202.08
11887.9
10174.9
9642.08
11100.4
3063.86
2063.24
1854.61
1776.49
1787.81
1807.19
1767.95
1617.59
1426.58
1259.31
1196.97
1302.33
1483.04
1638.75
1730.31
1755.03
1748.57
1763.59
1861.78
2074.66
3074.41
11046.6
9912.25
9408.11
10248.9
2971.17
2006.85
1763.88
1686.6
1688.49
1687.78
1633.04
1494.04
1324.85
1176.08
1119.67
1217.12
1380.31
1519.88
1609.16
1644.99
1651.2
1670.19
1764.86
2010.07
3000.94
10429.5
9636.75
9174.99
9562.35
2878.26
1968.81
1692.27
1607.27
1595.44
1583.38
1519.88
1390.72
1237.94
1103.59
1051.27
1139.76
1286.82
1414.17
1500.14
1545.61
1559.79
1586.14
1684.93
1962.3
2932.56
9764.48
9363.07
8958.6
9092.7
2765.83
1942.44
1645.74
1533.87
1511.83
1489.33
1419.88
1299.26
1161.94
1039.58
991.195
1071.92
1204.71
1320.6
1404.2
1455.46
1476.01
1513
1629.2
1933.73
2835.24
9212.53
9115.76
8733.92
8551.35
2653.34
1919.79
1614.87
1470.61
1434.31
1400.99
1330.2
1216.99
1091.87
981.43
937.352
1012.55
1134.51
1241.06
1320.98
1373.85
1401.62
1447.9
1593.92
1916.68
2732.62
8839.87
8888.54
8515.71
8180.42
2555.56
1929.46
1599.26
1418.92
1366.85
1322.98
1250.25
1145.58
1032.04
930.464
889.577
958.271
1069.53
1167.67
1243.57
1298.92
1334.86
1391.97
1573.08
1917.9
2617.17
8270.8
8641.67
8306.73
7972.94
2463.32
1926.96
1597.17
1382.05
1305.52
1252.41
1179.69
1082.79
978.547
884.546
846.458
909.532
1012.09
1103.07
1174.13
1231.41
1274.57
1352.81
1569.14
1934.66
2507.16
7879.14
8427.01
8093.27
7604.52
2351.7
1885.19
1610.7
1359.04
1253.78
1189.06
1114.3
1024.05
929.158
842.812
807.885
867.019
961.722
1045.66
1112.66
1172.18
1223.68
1326.63
1585.97
1922.82
2397.29
7651.76
8234.69
7904.36
7362.37
2241.71
1834.45
1643.49
1348.44
1212.93
1134.68
1058.57
973.479
885.514
805.122
772.679
827.195
914.73
993.251
1056.96
1119.49
1183.46
1314.36
1606.41
1863.61
2279.79
7396.3
8010.87
7751.48
7197.28
2149.01
1775.36
1683.11
1354.62
1184.13
1090.29
1009.43
927.9
846.166
771.031
740.866
791.386
872.056
945.872
1007.68
1075.56
1156.2
1314.58
1670.48
1805.95
2180.49
7217.89
7803.11
7599.99
7008
2059.59
1700.32
1671
1372.66
1163.81
1057.04
967.279
886.112
809.201
739.388
711.523
759.093
834.671
904.856
966.667
1042.36
1136.24
1334.85
1695.71
1744.85
2161.11
7055.99
7633.88
7455.04
6863.59
1986.7
1626.09
1624.62
1427.17
1155.53
1032.7
934.004
850.421
776.783
711.031
684.748
728.924
799.383
867.247
932.258
1017.31
1125.31
1372.97
1656.8
1664.51
2073.31
6867.68
7480.59
7336.05
6711.81
2011.05
1560.86
1562.45
1471.38
1168.08
1014.45
910.452
821.186
747.878
684.981
659.94
701.302
767.898
835.354
906.405
999.926
1136.01
1456.1
1596.52
1589.31
2015.9
6714.73
7356.22
7212.99
6569.98
1950.98
1496.78
1490.82
1460.93
1206.33
1005.08
890.053
797.844
722.628
661.419
637.535
677.189
741.49
810.63
886.34
991.876
1188.71
1489.06
1526.95
1531.21
2025.4
6583.5
7251.71
7092.63
6411.67
1975.8
1448.31
1419.11
1411.77
1289.59
1019.28
876.988
781.665
703.931
641.892
617.975
656.358
720.864
792.285
871.37
1003.5
1278.08
1440.47
1455.76
1474.42
1994.89
6443.9
7143.03
6973.8
6265.66
2020.95
1414.15
1358.44
1356.97
1319.44
1080.13
873.199
767.164
689.986
627.495
601.387
640.814
705.38
776.976
863.854
1064.37
1320.2
1382.28
1392.09
1431.85
1996.54
6282.31
7021.22
6786.68
6090.41
2007.36
1379.67
1306.87
1300.76
1278.22
1171.15
897.78
756.281
677.926
616.399
589.099
629.342
692.76
765.676
886.7
1166.76
1281.57
1320.42
1338.34
1407.42
2043.75
6077.37
6826.47
6540.15
5863.07
2009.33
1355.9
1262.81
1245.24
1232.82
1207.76
975.66
758.99
668.618
607.331
580.451
619.718
681.894
763.171
952.21
1221.06
1237.69
1260.01
1289.67
1381.41
2028.37
5837.27
6578.07
5968.85
5466.31
1988.12
1334.7
1224.75
1196.48
1183.74
1170.59
1064.4
797.757
666.489
599.532
572.87
611.248
677.692
791.194
1059.66
1189.1
1190.25
1207.43
1246.34
1355.74
1989.99
5432.71
6010.57
1053.14
2288.4
3789.16
4169.06
3792.39
3276.97
2912.99
2774.09
2792.64
2794.65
2606.56
2027.51
1494.18
1148.93
971.239
895.857
874.442
879.568
897.232
921.975
952.985
988.571
1028.59
1072.06
1115.34
1146.09
1143.96
1088.92
937.759
568.151
1169.89
2745.68
4078.87
4184.46
3641.25
3108.61
2748.93
2601.44
2611.06
2644.17
2565.54
2138.9
1574.73
1187.86
980.773
889.27
859.433
859.572
874.784
898.676
928.282
962.047
1001.47
1046.8
1092.75
1136.19
1166.61
1195.91
1256.11
745.308
1303.63
3196.16
4344.36
4140.33
3467.14
2927.64
2600.16
2468.03
2486.06
2506.58
2422.92
2018.8
1511.31
1162.44
965.467
873.501
840.032
837.384
850.7
872.72
900.582
932.395
969.791
1012.91
1060.95
1116.34
1193.47
1370.64
1536.42
809.449
1491.86
3621.14
4528.76
4064.22
3306.87
2761.55
2437.46
2320.72
2361.77
2387.38
2315.3
1977.03
1505.46
1162.02
956.747
858.214
820.137
814.681
826.498
847.047
873.313
904.589
940.871
983.104
1036.42
1114.5
1286.67
1653.7
1614.32
836.657
1698.96
3967.3
4643.15
3943.81
3139.47
2591.22
2267.66
2191.87
2256.37
2273.6
2200.22
1879.23
1455.74
1133.75
936.728
838.833
799.197
792.144
802.663
822.353
848.044
878.944
914.375
957.745
1020.62
1144.47
1470.76
1745.61
1573.01
842.616
1937.7
4289.86
4682.27
3782.09
2941.55
2399.18
2116.54
2072.54
2169.1
2177.17
2086.56
1784.17
1409.83
1099.53
911.513
818.297
778.735
771.115
780.675
800.31
826.089
856.67
892.231
939.782
1023.72
1245.41
1690.04
1670.79
1482.79
845.374
2178.21
4631.22
4697.1
3610.79
2735.52
2238.56
2010.12
1984.92
2087.88
2091.96
1987.66
1702.37
1348.69
1054.28
881.737
796.819
759.073
752.192
762.221
782.125
807.906
838.206
874.819
932.758
1068.68
1436.7
1673.64
1554.85
1396.1
851.942
2433.93
4969.95
4671.3
3440.04
2564.49
2118.49
1932.66
1929.91
2029.69
2031.84
1919.92
1623.8
1282.37
1005.07
850.988
774.51
741.948
737.072
747.815
768.282
794.142
824.4
866.394
946.972
1177.58
1549.41
1571.02
1456.45
1329.58
857.319
2688.5
5267.96
4618.44
3274.54
2435.39
2040.98
1889.79
1891.25
1988.14
1994.06
1876.96
1543.23
1201.34
950.789
821.617
755.64
728.979
726.642
738.603
759.66
785.672
817.859
870.37
1000.79
1347.46
1512.51
1468.6
1387.16
1278.82
859.192
2948.24
5503.22
4534.54
3137.94
2359.42
2000.97
1850.48
1837.07
1935.03
1950.94
1807.43
1455.59
1109.8
897.893
795.368
742.337
722.009
722.298
735.914
757.082
783.472
821.026
895.425
1105.74
1421.7
1432.82
1392.42
1333.95
1231.19
854.226
3216.66
5671.31
4448.21
3068.28
2330.03
1968.67
1799.13
1770.01
1854.76
1859.18
1680.78
1338.59
1019.02
856.554
778.378
737.41
723.023
725.949
740.357
761.039
788.513
835.803
956.528
1258.35
1395.07
1362.68
1338.72
1286.23
1178.47
838.791
3488.78
5807.86
4410.36
3047.63
2321.82
1945.97
1751.55
1690
1727.86
1690.38
1487.72
1200.6
949.057
832.881
774.604
742.8
732.933
737.495
751.329
771.022
801.996
869.404
1061.72
1320.57
1345.96
1306.64
1290.66
1231.92
1111.47
815.872
3737.82
5966.53
4436.89
3063.52
2342.86
1948.25
1725.38
1616.76
1592.24
1500.18
1302.69
1093.56
917.428
831.11
786.667
759.541
752.119
756.327
767.593
786.754
825.389
937.19
1206.9
1303.95
1296.63
1255.82
1238.81
1169.58
1045.15
793.992
3970.92
6155.22
4515.84
3126.71
2407.71
1989.29
1731.37
1578.92
1488.18
1362.44
1189.46
1048.3
923.41
849.448
811.118
786.179
779.124
780.635
788.037
808.527
869.718
1053.44
1252.41
1263.76
1246.79
1207.36
1183.12
1108.5
989.831
776.192
4192.13
6382.19
4646.56
3241.05
2514.75
2079.11
1793.84
1589.51
1446.87
1304.63
1168.12
1062.17
959.158
888.719
846.284
822.344
812.862
809.775
814.231
843.873
958.226
1191.17
1234.28
1220.95
1197.62
1161.5
1130.89
1054.68
946.129
762.099
4420.29
6660.6
4834.76
3414.55
2679.5
2237.5
1940.64
1703.5
1522.79
1371.78
1246.97
1139.68
1034.6
958.487
899.618
873.01
855.956
847.201
853.876
915.795
1109.42
1212.05
1200.99
1179.63
1153.32
1121.63
1085.89
1011.37
909.756
750.556
4670.99
6996.9
5094.75
3654.82
2912.22
2469.31
2178.55
1928.82
1727.04
1566.24
1424.77
1296.54
1172.06
1075.47
988.385
949.486
917.314
905.06
930.757
1060.62
1202.21
1196.96
1170.27
1142.82
1116.74
1088.01
1047.69
976.061
880.081
739.612
4926.19
7401.5
5445.92
3979.76
3224.52
2785.83
2514.47
2268.33
2059.73
1885.55
1717.47
1562.4
1410.46
1280.85
1149.07
1076.82
1023.93
1017.87
1091.27
1215.21
1222.28
1179.57
1143.72
1111.41
1088.85
1060.04
1015.44
948.509
854.162
729.319
5177.28
7889.53
5907.09
4401.74
3623.75
3199.07
2960.55
2738.75
2548.44
2368.32
2190.36
2020.54
1841.2
1662.54
1462.02
1323.07
1241.3
1248.99
1290.81
1278.49
1224.39
1166.46
1116.24
1086.98
1067.76
1036.55
989.317
925.939
831.08
718.704
5461.01
8467.3
6459.74
4917.04
4118.95
3714.74
3508.79
3345.53
3211.93
3065.92
2930.48
2804.48
2625.57
2379.23
2085.04
1827.57
1645.39
1512.99
1410.53
1314.16
1225.65
1152.9
1101.02
1069.79
1051.04
1016.58
967.971
906.506
810.026
708.374
5911.96
8967.25
7082.82
5527.35
4709.3
4316.09
4132.27
4067.11
4031.38
4027.77
4067.13
4083.24
3908.88
3555.39
3078.93
2530.81
2076.85
1743.3
1510.02
1347.3
1225.48
1136.8
1089.44
1057.87
1036.92
997.98
949.274
888.285
789.506
699.909
6257.61
9652.59
7763.89
6243.89
5415.65
5000.68
4822.67
4866.08
5007.89
5308.72
5613.51
5627.14
5414.67
4928.5
4203.82
3329.75
2552.35
1983.59
1616.28
1380.48
1222.41
1127.35
1080.57
1048.65
1021.61
979.001
931.193
869.336
769.412
693.076
6600.27
10122.4
8402.18
7107.79
6289.78
5834.96
5653.33
5782.37
6184.9
6816.62
7132.03
7174.13
6946.63
6341.3
5359.98
4174.64
3067.43
2250.25
1723.4
1412.17
1229.52
1127.99
1075.34
1038.42
1003.53
959.815
912.52
850.275
749.78
686.71
6872.26
10792.8
9311.74
8297.35
7480.32
6938.62
6723.09
6930.58
7609.86
8235.5
8572.7
8622.49
8348.71
7608.91
6415.79
4987.03
3603.78
2526.6
1853.42
1467.21
1249.36
1132.83
1071.39
1023.93
984.259
940.068
891.062
830.939
730.434
678.943
6870.04
11802.7
11068.4
10274.2
9207.7
8468.16
8154.88
8450.6
9177.16
9689.97
9993.11
9973.32
9571.69
8656.54
7297.18
5709.37
4138.02
2850.82
2015.79
1535.72
1277.04
1139.11
1064.43
1006.17
963.794
919.987
873.73
811.08
710.643
669.88
556.313
928.775
1083.78
1136.61
1138.28
1109.61
1069.13
1027.1
987.567
951.855
921.398
896.479
878.98
875.103
900.5
984.546
1179.04
1551.04
2110.83
2677.57
2848.27
2831.89
2812.83
2964.77
3341.33
3872.2
4274.16
3901.24
2370.8
1075.48
753.476
1228.16
1182.43
1157.9
1129.23
1087.29
1042.21
999.919
960.875
927.06
897.995
874.828
859.521
860.576
895.832
996.797
1221.04
1634.75
2219.96
2615.37
2683.4
2646.15
2635.6
2797.49
3165.61
3717.37
4283.68
4188.64
2835.25
1201.38
823.166
1544.48
1346.17
1182.01
1110.38
1056.86
1009.29
967.197
930.606
898.819
872.138
850.482
837.99
842.211
881.13
982.35
1193.52
1566.03
2095.87
2471.04
2545.21
2517.08
2501
2645.94
2981.96
3543.6
4246.13
4456.39
3290.59
1339.94
853.203
1635.75
1633.22
1268.84
1107.46
1032.57
980.377
938.147
902.241
872.032
846.349
826.272
816.224
823.766
867.16
976.184
1193.73
1558.74
2047.79
2359.41
2423.16
2391.26
2352.24
2477.43
2815.36
3382.05
4179.62
4650.68
3717.67
1531.79
859.116
1598.72
1754.63
1445.35
1133.63
1015.08
953.671
911.023
876.039
846.22
821.38
802.511
794.087
803.899
848.827
956.463
1164.99
1505.62
1944.93
2242.2
2309.61
2286.59
2221.58
2305.47
2641.68
3217.86
4065.97
4781.57
4069.96
1740.11
858.139
1505.13
1686.82
1674.39
1226.77
1015.15
934.234
887.881
853.532
824.263
799.587
780.882
773.096
784.019
828.175
931.08
1130.15
1456.57
1844.03
2127.23
2214.04
2199.59
2101.46
2153.27
2447.12
3015.59
3893.28
4829.16
4408.01
1984.1
860.998
1412.42
1567.31
1672.92
1409.89
1055.62
926.123
870.365
835.144
806.045
781.303
762.575
754.42
764.2
805.563
900.168
1084.86
1392.32
1757.54
2027.23
2130.28
2120.81
2015.5
2047.09
2285.37
2804.04
3714.5
4848.98
4761.85
2225.58
864.839
1340.74
1463.1
1575.17
1535.33
1159.71
938.737
861.591
821.047
791.708
766.957
748.101
738.933
746.417
782.935
868.464
1034.86
1323.73
1677.38
1960.75
2073.82
2064.63
1961.47
1967.84
2163.42
2629.29
3539.18
4826.49
5109.52
2483.94
866.072
1285.52
1388.02
1470.89
1505.29
1323.22
988.538
864.26
813.608
782.57
757.905
738.58
727.985
732.734
763.025
836.393
978.901
1248.24
1599.19
1920.91
2038.65
2022.17
1922.41
1923.97
2085.52
2495.77
3370.01
4773.28
5419.57
2741.42
860.843
1234.85
1332.24
1390.54
1430.34
1408.45
1089.66
887.133
815.874
779.712
754.65
735.107
723.164
725.165
748.519
807.321
921.283
1152.63
1513.93
1855.09
1995.42
1962.32
1865.69
1883.54
2045.13
2417.16
3229.67
4683.72
5671.13
3006.58
845.362
1180.85
1283.96
1335.59
1361.93
1388.37
1240.77
944.692
829.405
783.996
757.994
738.951
726.259
725.535
742.489
787.336
873.901
1050.18
1389.78
1725.85
1897.12
1875.43
1793.32
1831.05
2012.92
2388.05
3156.25
4590.92
5845.99
3287.46
822.337
1116.29
1230.74
1287.56
1306.39
1341.04
1312.24
1047.22
860.981
796.848
767.523
749.295
737.171
734.771
747.095
781.16
845.149
971.33
1237.54
1526.6
1720.07
1742.96
1711.03
1783.1
1989.21
2380.65
3134.41
4549.54
5988.52
3572.21
799.812
1051.66
1168.86
1236.9
1255.69
1292.76
1296.21
1191.98
924.942
819.28
782.749
765.249
755.338
753.131
763.264
791.515
839.098
935.886
1119.1
1334.22
1525.14
1609.86
1638.21
1757.79
1992.72
2403.4
3151.73
4574.8
6154.67
3831.16
781.661
995.79
1106.91
1181.46
1206.01
1244.68
1255.25
1247.63
1035.87
861.149
804.649
786.128
780.019
780.163
790.242
815.019
854.757
936.138
1066.71
1214.54
1386.27
1509.67
1604.62
1767.29
2036.36
2470.72
3217.6
4655.48
6350.62
4076.82
768.366
950.818
1056
1129.2
1160.16
1196.5
1213.56
1232.18
1181.93
945.356
839.323
813.109
810.561
815.195
828.079
852.302
894.828
969.237
1076.7
1187.56
1327.42
1471.52
1619.71
1833.9
2131.56
2581.86
3335.65
4787.55
6585.91
4310.56
756.711
914.777
1013.74
1084.54
1120.43
1152.58
1174.42
1199.21
1211.17
1094.26
908.313
853.412
849.954
861.082
881.682
908.838
968.646
1047.74
1154.85
1268.47
1396.58
1552.88
1741.16
1988.07
2295.24
2753
3514.66
4977.31
6865.56
4549.09
745.321
886.158
979.941
1048.05
1087.45
1117.54
1139.82
1169.11
1199
1201.55
1049.28
930.55
910.691
927.65
964.156
1004.88
1092.6
1194.17
1319.68
1454.17
1595.07
1764.77
1975.89
2234.44
2533.67
2992.61
3766.69
5243.65
7204.87
4806.81
733.725
860.868
954.099
1019.18
1060.69
1090.92
1111.27
1144.54
1182.67
1227.48
1219.02
1092.61
1029.54
1044.78
1105.01
1184.4
1315.6
1452.52
1603.5
1763.42
1932.19
2108.82
2326.8
2579.97
2860.14
3315.08
4105.72
5606.29
7617.28
5072.72
721.591
838.508
933.373
995.562
1039.43
1070.77
1089.1
1120.9
1171.46
1233.58
1292.27
1309.03
1276.39
1286.8
1385.26
1541.73
1741.62
1922.58
2095.64
2265.85
2440.52
2615.1
2808.77
3037.55
3285
3726.54
4547.9
6089.34
8114.49
5332.99
711.022
817.417
915.122
975.843
1022.15
1055.36
1073.49
1102.77
1161.07
1239.45
1337.46
1446.25
1566.73
1735.61
1963.58
2262.23
2555.53
2790.52
2949.45
3063.59
3177.08
3301.01
3429.67
3599.39
3812.85
4235.94
5087.3
6667.56
8702.03
5624.23
703.085
797.513
897.829
958.307
1005.6
1042.56
1062.31
1093.95
1149.88
1244.63
1380.06
1565.21
1830.81
2220.83
2748.19
3346.99
3855.6
4198.51
4338.28
4303.43
4216.25
4166.39
4173.73
4243.35
4431.75
4841.05
5718.33
7318.88
9218.38
6084.19
696.496
778.061
880.54
941.659
988.529
1028.84
1053.82
1086.98
1138.26
1247.68
1422.53
1691.43
2110.07
2761.79
3640.71
4577.17
5333.72
5808.17
5981.39
5932.33
5613.02
5226.92
5017.11
4958.91
5139.34
5567.45
6454.54
8027.2
9912.45
6437.44
690.087
758.36
862.983
925.144
970.896
1012.52
1045.65
1083.37
1140.8
1254.66
1462.12
1818.15
2412.97
3340.06
4566.67
5823.97
6834.47
7437.65
7628.88
7530.11
7187.98
6526.77
6000.6
5820.67
5997.31
6464.41
7339.31
8687.54
10407
6788.1
682.74
738.738
845.527
908.679
952.946
994.648
1034.24
1081.8
1147.72
1277
1517.48
1952.15
2707.55
3913.89
5414.57
6921.56
8148.81
8904.97
9157.76
9043.44
8657.3
8038.83
7247.03
6939.76
7127.87
7682.97
8562.14
9616.36
11060.4
7062.3
674.277
719.169
826.735
893.179
935.082
977.608
1018.92
1078.31
1157.35
1307.5
1591.64
2125.11
3051.2
4452.55
6121.6
7784.44
9192.13
10143.3
10551.6
10518.8
10153.4
9597.4
8884.19
8440.63
8694.7
9446.03
10585.1
11428.9
12101
7065.48
2297.43
1998.24
1742.66
1584.43
1457.69
1364.85
1286.01
1226.01
1183.56
1162.34
1158.16
1166.1
1183.05
1211.41
1252.49
1309.27
1385.8
1481.3
1596.92
1732.16
1883.99
2044.64
2206.75
2366.39
2514.14
2644.88
2753.4
2838.56
2913.18
2971.08
3014.98
3045.25
3060.75
3060.87
3054.18
3044.4
3027.63
3001.99
2965.25
2913.49
2842.44
2749.33
2635.65
2502.96
2351.32
2201.5
2054.44
1910.18
1767.88
1631.19
1506.76
1395.83
1295.29
1200.23
1112.5
1033.9
961.685
896.23
835.824
780.121
730.214
686.145
647.789
614.106
584.751
559.807
539.393
523.289
510.929
501.593
494.387
488.445
483.137
478.097
473.047
467.917
462.829
458.011
453.722
450.249
447.669
445.876
444.705
443.997
443.661
443.661
443.923
444.476
445.402
446.759
448.544
450.665
452.973
455.288
457.474
459.455
461.161
462.735
464.001
465.416
466.652
467.907
469.801
471.797
474.811
478.127
481.777
485.836
490.506
497.284
504.882
513.732
524.299
534.273
543.09
553.027
565.902
583.617
603.768
614.979
624.061
633.294
644.421
655.551
665.555
11341.8
10231.9
8977.78
8097.73
7334.64
6690.15
6130.76
5664.51
5281.67
4989.99
4778.16
4628.35
4518.15
4474.11
4510.4
4631.87
4872.99
5237.09
5720.58
6292.85
6941.05
7639.08
8333.43
9018.89
9627.99
10138.6
10558.1
10897.4
11195.3
11455.4
11689
11905.4
12106
12277.8
12414.9
12502.4
12531.4
12499.1
12400.4
12225
11968.7
11621.8
11180.4
10640.6
10012.2
9320.41
8598.57
7864.83
7138.32
6428.12
5755.21
5137.51
4581.1
4076.38
3619.76
3211.6
2846.32
2520.98
2231.78
1978.35
1759.02
1573.78
1418.43
1286.96
1174.65
1078.79
998.918
934.088
882.422
840.972
806.691
776.942
750.021
725.122
701.763
679.539
658.29
638.122
619.265
601.858
586.121
572.243
560.158
549.624
540.345
532.167
524.718
517.865
511.644
506.12
501.308
497.151
493.518
490.222
487.079
483.971
480.803
477.674
474.48
471.636
468.998
466.575
464.886
463.244
462.812
463.694
466.076
469.304
472.79
477.786
484.174
491.844
499.394
507.261
517.49
529.694
544.284
561.766
583.162
603.222
621.028
638.202
657.813
678.756
699.425
36069.2
33989
30985.1
28395.6
25977.9
23760.6
21709.7
19824.8
18075.6
16462.9
15054.8
13877
12907.8
12165.9
11669.3
11400.6
11379.3
11596.7
12075.4
12786.6
13638.1
14588.1
15552.8
16511.8
17421.4
18236
18960.5
19613.7
20228.7
20826.4
21418.2
22002.5
22571.3
23106.9
23592.6
24018
24360.1
24594.4
24702.2
24665.4
24462.4
24068.3
23458.4
22630.4
21586.7
20361.5
18998.8
17542.7
16036.4
14520.1
13036.3
11622.5
10306.6
9099.96
8014.18
7051.09
6196.54
5428.34
4732.29
4107.09
3555.27
3079.05
2673.41
2337.06
2064.89
1847.1
1669.93
1523.94
1404.29
1305.73
1223.59
1154
1093.54
1040.33
993.039
950.167
910.702
874.105
840.13
808.679
779.867
754.073
731.577
712.325
695.637
680.254
665.716
651.996
639.116
627.131
616.124
606.087
596.945
588.492
580.496
572.81
565.318
558.06
551.033
544.572
538.68
533.364
529.224
525.808
523.99
523.819
525.695
529.387
533.583
539.817
548.241
557.801
567.379
577.873
591.657
608.458
625.905
644.738
666.603
690.314
712.968
735.548
759.258
782.992
805.921
73791.6
71254.7
67056
62453.6
57719.8
53017.9
48365.8
43899.4
39679.5
35784.6
32304.6
29296.5
26774.9
24746.5
23227.2
22234.8
21743.2
21715.4
22135.3
22939.9
24019.5
25291.5
26668.1
28090
29508.1
30885.6
32231.1
33564.9
34913.6
36292.8
37701.1
39116.9
40507.4
41831.1
43036.2
44099.5
44991.5
45685.7
46159
46375.9
46291.5
45869.4
45083.3
43934.2
42444.5
40652.7
38603.4
36342
33915.4
31372.6
28766.5
26150.2
23573.5
21078.9
18713.6
16514.2
14491.3
12647.5
10977.9
9481.43
8148.41
6976.23
5936.64
5013.42
4218.26
3565.95
3056.12
2668.44
2377.95
2157.99
1985.93
1846.36
1728.89
1629.28
1542.44
1462.29
1387.72
1318.3
1254.15
1195.65
1143.05
1095.91
1053.75
1016.87
984.092
952.896
922.502
892.707
863.709
835.785
809.243
784.318
761.232
739.891
720.037
701.442
683.925
667.61
652.439
638.878
626.842
616.559
608.088
601.034
596.195
593.56
593.695
597.17
601.252
607.256
614.681
624.757
635.718
647.826
662.667
680.202
699.032
719.083
742.253
766.887
790.652
814.86
838.236
859.234
877.6
112548
109774
105109
99814.1
93665.7
86861.6
80013.9
73214.4
66703.6
60605.6
55104.9
50274.9
46201.2
42923.4
40429.3
38790
37952.1
37841.8
38388.1
39479
40975.6
42768.3
44731.1
46818.3
48982.2
51189.3
53443.6
55755.6
58131.2
60557.3
63000.6
65410
67722.2
69873.6
71799.4
73424.5
74763
75794.1
76489.1
76807.8
76706.9
76154.8
75144.6
73697.6
71855.8
69668.8
67184.4
64445.9
61493.8
58367.3
55104.5
51743.9
48320.8
44873
41440.5
38055.8
34742.5
31520.8
28412
25425.5
22577
19872.3
17293.8
14834.5
12498
10310.2
8406.28
6875.2
5721.1
4879.29
4264.64
3807.28
3461.67
3195.81
2984.09
2808.96
2656.4
2517.52
2388.18
2267.98
2158.74
2062.9
1977.78
1895.27
1811.52
1727.57
1643.29
1558.29
1473.07
1388.84
1307.1
1228.9
1155.14
1086.55
1023.45
965.882
913.831
867.43
826.604
791.194
760.815
735.154
714.239
696.746
683.241
673.635
668.17
667.86
670.718
674.251
678.887
687.114
697.807
710.307
725.643
744.155
764.887
786.418
808.58
829.213
849.543
869.295
887.043
902.766
918.342
144227
141450
136715
131168
124708
117414
109312
101228
93333
85949.4
79240.6
73382.5
68458.7
64568.2
61751.7
60014.2
59313
59548.8
60634.3
62370.5
64598.4
67134.5
69944
72928.5
76025.1
79196.9
82436.3
85735
89070.8
92400.3
95665
98795.4
101715
104357
106660
108564
110022
111099
111766
111963
111666
110868
109600
107908
105846
103470
100830
97964.1
94909.1
91701.7
88370.5
84960.6
81497.6
77991.1
74453.5
70886.9
67288.6
63652.2
59991.5
56283.8
52516.8
48678.3
44752.8
40736.4
36632.1
32479.7
28396.1
24517.3
20954.8
17786
15054.1
12768.7
10932.4
9486.94
8364.51
7494.74
6813.53
6267.58
5816.39
5431.71
5090.22
4773.46
4474.7
4196.84
3939.35
3697.87
3466.88
3243.61
3025.85
2811.37
2600.69
2395.06
2196.49
2006.19
1826.02
1658.97
1506.66
1369.52
1248.58
1144.1
1055.78
982.6
923.061
874.949
835.75
805.957
784.892
772.065
765.743
761.204
759.836
762.536
769.871
781.37
796.098
812.513
829.344
847.421
865.739
883.832
900.904
915.8
929.465
943.87
960.23
166132
163721
159303
153979
147641
140469
132580
124134
115963
108256
101332
95364.4
90512.6
86893.2
84567.2
83528.6
83695.8
84914.6
86986.8
89712.1
92877.3
96415.9
100154
104020
107961
111944
115950
119952
123909
127767
131459
134912
138053
140822
143169
145053
146413
147299
147731
147655
147065
145978
144439
142515
140293
137851
135254
132559
129804
127014
124201
121367
118506
115607
112651
109615
106460
103120
99647.3
96008.8
92142.2
88024.7
83642.9
79040.9
74207.3
69167.7
63976.7
58701.3
53396.1
48130.5
42990.2
38085
33519.3
29395
25805.7
22678.8
19971.9
17629.7
15614.1
13890.1
12417.7
11157.2
10073.1
9137.68
8326.25
7617.35
6993.81
6436.61
5929.66
5461.8
5026.36
4618.16
4231.9
3863.98
3510.96
3172.07
2849.74
2547.09
2266.03
2010.38
1784.3
1588.72
1423.57
1287.3
1175.72
1086.47
1018.79
969.855
936.559
910.695
890.473
876.719
872.475
875.809
883.966
892.566
902.058
912.715
924.275
936.522
948.404
959.194
971.266
986.348
1002.73
178465
176688
172913
168267
162648
156192
149060
141459
133719
126522
120102
114743
110669
108037
106915
107257
108888
111547
114951
118880
123176
127659
132226
136822
141402
145937
150400
154758
158970
162984
166740
170176
173232
175858
178015
179667
180779
181295
181301
180794
179816
178432
176729
174808
172753
170634
168509
166410
164356
162353
160393
158457
156515
154532
152468
150276
147908
145301
142419
139219
135660
131713
127276
122575
117583
112275
106674
100841
94796
88554.4
82167.4
75724.5
69283
62895.6
56574.3
50490.8
44797.3
39661.1
35051
30950.4
27317.6
24122.2
21325.8
18892.7
16784.3