/*--------------------------------*- C++ -*----------------------------------*\
| =========                 |                                                 |
| \\      /  F ield         | OpenFOAM: The Open Source CFD Toolbox           |
|  \\    /   O peration     | Version:  2112                                  |
|   \\  /    A nd           | Website:  www.openfoam.com                      |
|    \\/     M anipulation  |                                                 |
\*---------------------------------------------------------------------------*/
FoamFile
{
    version     2.0;
    format      ascii;
    arch        "LSB;label=32;scalar=64";
    class       surfaceScalarField;
    location    "0.00686";
    object      phi;
}
// * * * * * * * * * * * * * * * * * * * * * * * * * * * * * * * * * * * * * //

dimensions      [1 0 -1 0 0 0 0];

oriented        oriented;

internalField   nonuniform List<scalar> 
27436
(
-0.533484
8.19283
-0.0933616
7.47167
-0.0849905
7.78717
-0.0707192
7.78663
-0.0637635
7.78766
-0.048033
7.78189
-0.0393971
7.78855
-0.0348657
7.79234
-0.0257044
7.78802
-0.0162304
7.78751
-0.00819903
7.78911
0.000827288
7.78835
0.0142467
7.78359
0.0310918
7.78084
0.0462865
7.78226
0.0549046
7.78828
0.0579967
7.79263
0.0658483
7.78968
0.0753566
7.78828
0.0895432
7.78254
0.0961935
7.78792
0.111698
7.78556
0.123659
7.78273
0.572608
7.46045
8.21375
-0.247182
8.44001
-0.0960965
7.32055
-0.0811634
7.77216
-0.0543163
7.75961
-0.0585197
7.79201
-0.0611274
7.7845
-0.0391722
7.76706
-0.0297118
7.78319
-0.020306
7.77951
-0.00973572
7.77571
0.00175623
7.77904
0.0156766
7.7744
0.0150815
7.78394
0.0215403
7.77434
0.0210297
7.78277
0.0377103
7.77161
0.0465964
7.78373
0.0589657
7.77732
0.0823546
7.7649
0.0776788
7.7872
0.0721782
7.79337
0.102896
7.75488
0.114064
7.77138
0.268291
7.30637
8.48764
-0.227232
8.66723
-0.14104
7.23439
-0.120403
7.75155
-0.106816
7.74633
-0.104624
7.78989
-0.106265
7.78538
-0.0906651
7.74966
-0.0739752
7.76515
-0.0658897
7.77176
-0.0497557
7.76257
-0.0379411
7.7685
-0.0143225
7.75073
-0.0126842
7.78232
-0.0114357
7.77312
-0.00826844
7.77959
0.0126921
7.75064
0.0240492
7.77237
0.0473504
7.75408
0.0609444
7.75134
0.0594342
7.78874
0.0638901
7.78891
0.0786741
7.74006
0.100569
7.74918
0.192058
7.21663
8.68243
-0.169528
8.83678
-0.1394
7.20432
-0.134021
7.74622
-0.112729
7.72521
-0.113569
7.79068
-0.109395
7.77964
-0.0889467
7.72867
-0.0745399
7.74989
-0.0609187
7.75767
-0.0440686
7.74629
-0.0280179
7.75378
-0.00628137
7.72968
0.00288955
7.77323
0.00480958
7.77121
0.0149125
7.76948
0.0352709
7.73027
0.0494223
7.7582
0.0697355
7.7338
0.0885746
7.73252
0.0942642
7.78309
0.094488
7.7887
0.118972
7.71547
0.111567
7.7565
0.161895
7.16685
8.84053
-0.07362
8.91042
-0.0365534
7.16731
-0.0925215
7.8023
-0.0624971
7.69549
-0.0698954
7.79815
-0.0673958
7.77669
-0.051443
7.71146
-0.0399941
7.7372
-0.0286918
7.74562
-0.0147596
7.73327
0.000214193
7.74019
0.0179576
7.71243
0.0266695
7.76457
0.0276352
7.77027
0.0369986
7.76011
0.0543307
7.71293
0.0644411
7.74808
0.0820492
7.71621
0.0970169
7.71757
0.101102
7.77904
0.0969059
7.79291
0.12487
7.68747
0.0903199
7.79093
0.0979211
7.15879
8.93258
0.118488
8.79195
0.0436966
7.24217
-0.0501047
7.8962
-0.0125443
7.65811
-0.0314019
7.81702
-0.0342321
7.77857
-0.0241436
7.69987
-0.0178442
7.72885
-0.0116865
7.73878
-0.00204554
7.72617
0.00750593
7.73194
0.0210587
7.69955
0.025644
7.7602
0.0247642
7.77118
0.0296294
7.75524
0.0421127
7.70044
0.0463348
7.74384
0.0583825
7.70419
0.068472
7.70751
0.0691083
7.77844
0.0524446
7.8096
0.0884841
7.65137
-0.0135385
7.89298
-0.0201946
7.1654
8.91025
0.304525
8.48745
0.135965
7.41079
-0.00686573
8.03909
0.0221273
7.62926
-0.0226937
7.86193
-0.0472103
7.80215
-0.058997
7.71082
-0.0741643
7.74185
-0.0892494
7.7526
-0.0943744
7.73282
-0.109608
7.74844
-0.117641
7.70838
-0.130431
7.77341
-0.146652
7.78744
-0.158155
7.76674
-0.166509
7.70879
-0.185037
7.76235
-0.193042
7.71224
-0.207937
7.72245
-0.228647
7.79918
-0.26274
7.84374
-0.284644
7.67324
-0.354632
7.96316
-0.657754
7.46849
8.25225
0.873238
7.61423
0.521731
7.7624
0.410468
8.1505
0.332185
7.70779
0.268366
7.92573
0.227724
7.84167
0.19326
7.74438
0.163312
7.77078
0.135397
7.77922
0.115551
7.754
0.0859671
7.77884
0.0637043
7.73151
0.0385963
7.7991
0.00649725
7.81959
-0.01936
7.7926
-0.0446662
7.73409
-0.074363
7.79203
-0.100735
7.73865
-0.130626
7.75242
-0.167044
7.83562
-0.228147
7.90491
-0.278876
7.72395
-0.406305
8.09082
-0.693209
7.75531
7.56154
0.592929
7.02132
0.410128
7.94535
0.237801
8.32296
0.187748
7.75779
0.128639
7.98458
0.0975439
7.87128
0.0849039
7.75769
0.0757296
7.77762
0.0722063
7.78061
0.0762596
7.75194
0.0752259
7.77977
0.0739062
7.73424
0.0781871
7.79568
0.0766428
7.8212
0.0768231
7.79242
0.0722169
7.73868
0.0674353
7.79678
0.0629152
7.74322
0.0562503
7.75916
0.0294677
7.86256
-0.0266262
7.96116
-0.0465528
7.74402
-0.219342
8.26401
-0.372078
7.90838
7.19279
-3.05118
10.0729
-3.39114
8.28561
-2.76557
7.69673
-2.62133
7.61302
-2.30324
7.66674
-1.93548
7.50612
-1.65565
7.479
-1.37028
7.48976
-1.08057
7.48922
-0.785068
7.45831
-0.491716
7.48546
-0.206792
7.45133
0.0993536
7.49031
0.40338
7.51721
0.694314
7.5015
0.967076
7.4659
1.26456
7.49925
1.54136
7.46641
1.83525
7.4653
2.19656
7.50131
2.50216
7.65572
2.65927
7.58699
3.23449
7.68921
2.95125
8.19215
10.1447
-4.25736
14.3314
-4.36448
8.39359
-4.19601
7.52609
-3.90132
7.31814
-3.32742
7.09491
-2.80727
6.99134
-2.35907
7.03091
-1.91523
7.04263
-1.46081
7.03342
-1.01623
7.0151
-0.562518
7.03173
-0.119612
7.01065
0.343281
7.02795
0.811497
7.04901
1.25812
7.05491
1.67854
7.04553
2.13145
7.04632
2.56923
7.02856
3.02331
7.01113
3.5732
6.95144
4.13056
7.09857
4.44159
7.27641
4.61213
7.51894
4.5643
8.24059
14.7078
-2.75028
17.0841
-4.86385
10.5074
-4.98678
7.64038
-4.15285
6.48098
-3.63951
6.58661
-3.1862
6.54841
-2.69427
6.53854
-2.20191
6.54498
-1.70407
6.53335
-1.21826
6.52946
-0.724835
6.53951
-0.24169
6.52947
0.261003
6.52551
0.762672
6.54732
1.25814
6.55955
1.71833
6.58549
2.20717
6.55749
2.6963
6.53931
3.18997
6.51729
3.66477
6.47643
4.24614
6.51734
5.09813
6.42495
4.71846
7.89916
2.77854
10.1807
17.4857
2.3689
14.7171
0.185664
12.6924
-4.99455
12.8117
-3.90528
5.38958
-3.80637
6.49599
-3.30098
6.05031
-2.86209
6.09445
-2.36121
6.03705
-1.84225
6.01066
-1.32911
6.01428
-0.813585
6.02499
-0.305607
6.02298
0.215129
6.00489
0.743793
6.01863
1.2667
6.03695
1.78837
6.06424
2.28409
6.06194
2.76355
6.05957
3.19835
6.08217
3.75527
5.91941
3.97971
6.2933
5.08737
5.31756
-0.167567
13.1539
-2.39846
12.4115
15.0871
2.4585
12.2601
3.53032
11.622
3.50492
12.8382
-0.789075
9.68857
-3.62943
9.36015
-3.19124
5.64352
-2.96546
5.86923
-2.47458
5.53936
-1.94782
5.47955
-1.46658
5.52938
-0.974274
5.53346
-0.471269
5.52113
0.0284238
5.50536
0.535088
5.51217
1.03226
5.54054
1.52424
5.57322
2.03315
5.55349
2.49224
5.6
2.60677
5.96676
2.95944
5.56514
-0.105271
9.35879
-4.20275
9.41943
-3.89394
12.8454
-2.95664
11.4737
12.1301
1.88506
10.3776
3.8802
9.62793
5.70129
11.0225
4.95226
10.4217
4.09576
10.2213
-1.19316
10.9048
-2.42677
7.07414
-2.07821
5.1984
-1.64854
5.04968
-1.15295
5.03347
-0.6114
4.99361
-0.0645395
4.97646
0.474738
4.96694
1.01666
4.97126
1.56341
4.99566
2.0786
5.05998
2.48845
5.14454
2.86904
5.21887
1.53609
7.29916
-3.65203
10.7577
-4.24409
9.95225
-4.80707
9.98467
-3.05206
11.091
-1.34163
9.76242
10.7877
1.04703
9.3321
2.11623
8.55719
3.92633
9.21444
4.86662
9.4689
5.09819
9.98869
5.78956
10.2033
2.76349
10.083
1.22549
6.74125
0.0768537
6.19482
-0.303535
5.41405
-0.20225
4.89279
0.0599743
4.71529
0.383582
4.64322
0.678214
4.67726
0.850137
4.82471
0.656667
5.25483
-0.629563
6.43007
-2.29688
6.88584
-5.06789
10.0703
-4.29673
9.98582
-3.93107
9.58694
-3.46354
9.51851
-1.8175
9.44616
-0.721648
8.66697
10.0659
2.03629
7.29703
3.20115
7.38916
4.39768
8.00715
5.89161
7.95684
7.02326
8.86936
6.62236
10.6776
4.49123
12.2234
1.97707
9.26108
0.806239
7.37367
0.100364
6.12609
-0.078717
5.07803
-0.0874127
4.73487
-0.0109397
4.58099
0.0314167
4.64822
-0.0771134
4.94547
-0.714457
5.90213
-2.17099
7.89273
-4.70433
9.42162
-6.73051
12.1022
-7.18477
10.4391
-6.45372
8.85689
-4.99722
8.06526
-3.70779
8.15865
-2.5722
7.53217
7.49417
2.51717
4.78308
4.10075
5.8065
4.54716
7.55181
4.1735
8.32438
4.18917
8.86223
3.78257
11.1199
3.66109
12.3471
2.14398
10.7887
1.21461
8.30211
0.720033
6.61531
0.338808
5.45137
-0.0180094
5.08855
-0.390212
4.95245
-0.758464
5.01599
-1.16393
5.34997
-1.74588
6.48355
-2.77863
8.92437
-4.48122
11.125
-5.53624
13.1613
-6.32077
11.227
-5.80512
8.34496
-5.81252
8.07319
-4.9251
7.27275
-2.93844
5.54711
4.55751
3.17889
1.60672
6.29349
2.69322
8.47337
5.37315
7.92582
8.87442
6.10051
10.6914
5.63995
11.5801
5.51059
12.4741
4.88583
11.4138
4.08573
9.09823
3.10598
7.58821
1.89743
6.65471
0.78171
6.20029
-0.325899
6.05664
-1.47701
6.16245
-2.74816
6.61573
-3.93772
7.66679
-4.42029
9.4002
-4.80404
11.5048
-4.25829
12.6175
-4.5806
11.5535
-6.97605
10.7428
-7.82494
8.9235
-5.82132
5.2736
-2.96366
2.69125
1.59423
1.19545
0.412793
2.8631
1.02924
4.86022
3.3875
6.31555
7.43203
5.60418
11.4022
5.43735
11.7387
5.48085
12.4179
4.86529
12.0218
3.74719
10.2166
2.60043
8.73584
1.47049
7.78498
0.362238
7.30769
-0.751887
7.16939
-1.8962
7.3049
-3.11998
7.83805
-4.38137
8.92697
-5.45874
10.4746
-5.92883
11.9717
-5.7464
12.434
-5.87637
11.6829
-6.69984
11.566
-4.92978
7.15877
-2.91422
3.26058
-1.20124
0.979037
0.393231
0.577833
-0.163167
0.807478
0.801894
0.926553
3.27308
1.23863
7.13666
2.33186
10.3054
3.04002
11.018
3.52271
11.9217
3.34633
12.1921
2.61348
10.9536
1.76027
9.59268
0.923574
8.62304
0.0894297
8.14172
-0.737078
7.99561
-1.6052
8.17238
-2.52015
8.75277
-3.4412
9.84719
-4.11711
11.1471
-4.13737
11.9881
-3.49154
11.7855
-2.80729
10.9969
-1.6392
10.3952
-1.06477
6.58267
-0.840944
3.03882
-0.577263
0.716866
-0.184187
-0.180722
0.0171512
-0.337623
0.959257
-0.869763
3.80984
-0.665342
6.94385
0.455737
9.18315
1.42687
10.041
1.97668
11.3644
2.06194
12.1087
1.74028
11.2802
1.24918
10.0864
0.700574
9.17232
0.149573
8.69265
-0.408153
8.5536
-0.962886
8.72703
-1.512
9.3014
-1.97332
10.3067
-2.21213
11.3826
-2.04223
11.8151
-1.37186
11.113
-0.312804
9.93626
0.808393
9.27471
0.849898
6.53811
0.346335
3.54518
0.195749
0.868799
0.0133022
-0.666426
0.683138
-1.5457
1.83671
-1.84761
4.11227
-1.74182
6.84423
-0.816144
8.25797
0.0229834
9.20143
0.50107
10.886
0.78881
11.8263
0.848468
11.2235
0.721487
10.214
0.492496
9.40141
0.211127
8.97403
-0.0749537
8.83977
-0.345663
8.99719
-0.540013
9.49432
-0.60055
10.3644
-0.482963
11.2606
-0.220815
11.5499
0.348787
10.5437
1.20344
9.08068
2.15368
8.32597
2.045
6.64557
1.6419
3.94972
0.694322
1.81767
0.70707
-0.494142
1.17783
-1.66293
3.00339
-2.48721
4.93616
-2.50076
6.8592
-1.99276
7.7506
-1.55485
8.76291
-1.00156
10.3361
-0.475757
11.3018
-0.134973
10.8829
-0.000549621
10.0788
0.0119345
9.38882
-0.0438391
9.02963
-0.134497
8.92985
-0.191552
9.0531
-0.178543
9.4792
-0.0249407
10.2072
0.318325
10.9135
0.804673
11.0608
1.30289
10.047
1.84911
8.53451
2.42294
7.75372
2.37213
6.6971
1.54033
4.78169
0.445441
2.91152
1.15052
-0.470197
1.64789
-1.52219
4.05439
-2.25252
5.66393
-2.38022
6.98458
-2.13064
7.49933
-1.87396
8.5095
-1.42273
9.88428
-0.89344
10.7731
-0.467275
10.4552
-0.215039
9.8254
-0.100636
9.27422
-0.0620349
8.99055
-0.0291164
8.89579
0.0189117
9.00354
0.151946
9.34413
0.421563
9.93526
0.843685
10.4887
1.35847
10.5454
1.75391
9.6543
2.04339
8.24659
2.35119
7.44655
2.13543
6.91301
1.41155
5.50609
0.430515
3.8903
1.57953
-0.38335
2.03083
-1.30905
4.97838
-2.09183
6.44473
-2.39992
7.29066
-2.37268
7.47108
-2.14917
8.28264
-1.75226
9.4871
-1.18099
10.2025
-0.684669
9.95754
-0.344451
9.48488
-0.137994
9.06739
0.0207513
8.83057
0.146832
8.76828
0.308048
8.84059
0.534404
9.11556
0.90352
9.56365
1.40752
9.98218
1.94115
10.0097
2.27765
9.32049
2.48139
8.04355
2.51439
7.41335
2.17691
7.25101
1.34225
6.34167
0.418983
4.81145
1.99914
-0.463482
2.49335
-1.44338
5.95468
-2.23451
7.23294
-2.54389
7.59825
-2.5562
7.48375
-2.44241
8.16836
-2.13176
9.17887
-1.62698
9.69846
-1.13152
9.46122
-0.735939
9.08862
-0.444092
8.77478
-0.229607
8.61466
-0.0245081
8.56163
0.190226
8.62437
0.480195
8.82382
0.864756
9.17741
1.3305
9.51505
1.81207
9.52787
2.13162
9.0041
2.26557
7.91171
2.25314
7.42612
1.99639
7.50792
1.29207
7.04517
0.369137
5.73431
2.37048
-0.353686
2.84424
-1.22305
6.81821
-1.96222
7.96983
-2.18669
7.82228
-2.35932
7.6571
-2.26583
8.07184
-1.96627
8.8848
-1.46504
9.19603
-0.992234
8.98799
-0.613399
8.70876
-0.317224
8.47744
-0.0546173
8.35011
0.179663
8.32586
0.443592
8.35891
0.751454
8.51411
1.15204
8.77451
1.63264
9.03205
2.09195
9.06685
2.34054
8.75662
2.40093
7.85064
2.23897
7.58955
1.98312
7.76268
1.20607
7.82387
0.365623
6.57388
2.74255
-0.279762
3.12232
-1.19584
7.72924
-1.90975
8.68122
-2.104
8.01653
-2.23056
7.78353
-2.15863
7.9994
-1.89303
8.62323
-1.46598
8.7677
-1.02569
8.54618
-0.636569
8.31834
-0.299092
8.13859
-0.0176253
8.06689
0.265498
8.04151
0.54905
8.07414
0.890031
8.17179
1.28617
8.37662
1.71645
8.60007
2.13573
8.6459
2.3744
8.5203
2.43402
7.79026
2.32436
7.69637
2.14084
7.94635
1.41674
8.54737
0.439129
7.55418
3.18567
-0.52923
3.65068
-1.41415
8.609
-2.04873
9.31229
-2.20047
8.16619
-2.41163
7.99244
-2.44114
8.02739
-2.22603
8.4097
-1.76072
8.30173
-1.31288
8.09581
-0.9279
7.93181
-0.609036
7.81813
-0.295068
7.75125
-0.00261723
7.74803
0.312819
7.75753
0.646125
7.83727
1.03404
7.98657
1.46432
8.16766
1.86759
8.24105
2.08279
8.30449
2.07731
7.79653
1.9071
7.86695
1.76215
8.09081
1.12962
9.18182
0.32768
8.3705
3.51296
-0.423953
4.07619
-1.30571
9.49069
-1.90023
9.90446
-1.99456
8.26023
-2.02819
8.02551
-2.02238
8.02227
-1.79892
8.18788
-1.4446
7.94631
-1.07406
7.72409
-0.717674
7.57319
-0.374378
7.47367
-0.0733216
7.44872
0.240354
7.43367
0.54482
7.45227
0.885838
7.49553
1.25112
7.62019
1.62109
7.79535
1.99226
7.86779
2.19072
8.10756
2.1604
7.82391
2.11383
7.91041
1.95467
8.25219
1.50428
9.62635
0.487021
9.38348
4.00487
-0.389265
4.4672
-0.782497
9.88254
-1.60187
10.7175
-1.72881
8.38331
-1.81767
8.11381
-1.78743
7.99078
-1.6469
8.04397
-1.30965
7.60651
-0.968788
7.38273
-0.652165
7.25365
-0.366825
7.18743
-0.0636666
7.14451
0.222619
7.14687
0.526289
7.14792
0.824826
7.19626
1.16539
7.27826
1.51359
7.44584
1.80455
7.57409
1.9266
7.98447
1.95143
7.79952
1.91397
7.94465
1.94531
8.21949
1.14078
10.4207
0.564313
9.95864
4.58398
-0.628032
5.09875
-1.05834
10.3124
-1.85423
11.5079
-1.96939
8.4959
-1.95861
8.1035
-1.89131
7.9239
-1.684
7.83656
-1.40364
7.32455
-1.11456
7.09363
-0.821722
6.95938
-0.50982
6.87494
-0.230349
6.8641
0.0676472
6.84851
0.35292
6.86202
0.663314
6.88526
0.955291
6.98503
1.23321
7.16594
1.52285
7.28269
1.695
7.81131
1.76664
7.72542
1.75407
7.95496
1.68615
8.2844
0.785682
11.3239
0.43946
10.3263
5.01219
-0.435391
5.53468
-0.709362
10.5907
-1.31215
12.11
-1.58146
8.76268
-1.65373
8.17574
-1.59348
7.86189
-1.45165
7.68881
-1.18345
7.0549
-0.889207
6.7986
-0.59598
6.66497
-0.343428
6.62118
-0.0586816
6.5784
0.208299
6.58087
0.489439
6.58006
0.746413
6.62716
1.04786
6.6821
1.33859
6.8735
1.59631
7.02205
1.73817
7.66794
1.76173
7.70186
1.7348
7.97827
1.48289
8.53742
0.887192
11.9177
0.500358
10.7148
5.51144
-0.288426
5.82673
-0.390694
10.6972
-0.970251
12.6913
-1.50892
9.29866
-1.57877
8.2436
-1.48439
7.76598
-1.24767
7.44832
-1.03971
6.84844
-0.817851
6.57555
-0.589235
6.43567
-0.316792
6.34822
-0.0795089
6.33979
0.178942
6.32142
0.418902
6.33899
0.683588
6.36145
0.91324
6.45122
1.14087
6.64406
1.36479
6.79624
1.58799
7.44411
1.65475
7.63586
1.66793
7.96418
1.14362
9.05841
0.597729
12.4609
0.327259
10.9706
5.84939
-0.421433
6.25403
-0.613314
10.892
-0.928544
13.0073
-1.59245
9.96368
-1.55968
8.20901
-1.49777
7.70229
-1.36182
7.30677
-1.1217
6.61056
-0.896347
6.3491
-0.644829
6.18327
-0.435536
6.13701
-0.187352
6.09009
0.0400135
6.0927
0.285619
6.09208
0.508022
6.13764
0.763686
6.1944
0.981669
6.42527
1.18953
6.58604
1.3371
7.29416
1.38869
7.58281
1.36734
7.98399
0.680091
9.74942
0.220893
12.9319
0.180891
11.0118
6.02148
-0.207763
6.46185
-0.262119
10.9499
-0.453756
13.2024
-1.25269
10.7592
-1.37925
8.33118
-1.33573
7.65645
-1.10734
7.07436
-0.88904
6.39502
-0.700967
6.16014
-0.512221
5.99317
-0.269485
5.89349
-0.0606672
5.87987
0.173381
5.85738
0.384667
5.87972
0.616586
5.90519
0.810122
6.00057
1.00792
6.22751
1.24415
6.34907
1.45339
7.08368
1.50099
7.53575
1.40702
8.07956
0.626521
10.5219
0.473678
13.0864
0.39491
11.0821
6.39823
-0.0171883
6.47754
-0.00317661
10.9383
-0.0355808
13.2391
-0.762812
11.4861
-1.18834
8.75138
-1.10341
7.5691
-1.01517
6.98304
-0.836807
6.21739
-0.647574
5.9701
-0.436917
5.78098
-0.264745
5.71998
-0.0553241
5.66955
0.13343
5.66782
0.34337
5.66916
0.52468
5.72354
0.741852
5.78319
0.920401
6.04917
1.09106
6.17936
1.23474
6.93762
1.33666
7.43171
0.977131
8.43912
0.228213
11.2607
0.166622
13.1423
0.171651
11.0707
6.63094
-0.217715
6.69674
-0.36709
11.0876
-0.181477
13.0573
-0.716834
12.0213
-1.32087
9.35382
-1.22084
7.46693
-1.05215
6.81444
-0.858628
6.02425
-0.683187
5.79477
-0.530916
5.62828
-0.334326
5.52292
-0.161951
5.49709
0.036095
5.46956
0.211916
5.49336
0.405688
5.53032
0.563362
5.62609
0.753521
5.85909
0.932722
5.99976
1.05001
6.81773
1.13053
7.34856
0.443083
9.12663
-0.218205
11.932
-0.0115653
12.9306
0.0555676
11.0222
6.73511
-0.0593237
6.76699
-0.100895
11.1294
0.180081
12.7775
-0.110017
12.3102
-0.864057
10.1018
-0.917518
7.51833
-0.847704
6.74484
-0.723421
5.89988
-0.572092
5.64408
-0.377484
5.43391
-0.221525
5.36685
-0.0388559
5.31474
0.128177
5.30269
0.310182
5.31173
0.472271
5.36847
0.672219
5.42602
0.815318
5.71641
0.951325
5.86489
1.05769
6.70739
1.02869
7.37378
0.314609
9.8408
0.00719742
12.2511
0.25875
12.6936
0.139322
11.1653
6.87922
-0.00743744
6.78502
0.0297247
11.0991
0.324577
12.4799
0.325094
12.3089
-0.49037
10.9128
-0.904494
7.93211
-0.732058
6.57437
-0.616919
5.78441
-0.484012
5.51154
-0.366072
5.31585
-0.196428
5.19705
-0.0468669
5.16562
0.118425
5.13762
0.267786
5.16272
0.431553
5.20494
0.558323
5.29966
0.723657
5.5499
0.832195
5.75535
1.05087
6.48659
0.729789
7.69203
-0.0854536
10.6533
-0.206947
12.3811
0.0544649
12.4316
0.0175692
11.1976
6.86638
-0.133008
6.92268
-0.134509
11.1085
0.0786896
12.267
0.248831
12.1358
-0.26297
11.4257
-0.778525
8.44658
-0.778607
6.57481
-0.667121
5.67213
-0.574818
5.41857
-0.408051
5.14938
-0.275417
5.06453
-0.119075
5.00931
0.0238473
4.99468
0.175729
5.01089
0.313236
5.06685
0.472555
5.13986
0.554294
5.46696
0.631916
5.67759
0.707264
6.4075
0.0760927
8.32075
-0.623783
11.3476
-0.363233
12.1289
-0.19915
12.2713
-0.101653
11.0758
6.74611
-0.0536955
6.97486
-0.00102344
11.0645
0.20142
12.0639
0.583822
11.7496
0.175072
11.8326
-0.454747
9.07538
-0.635593
6.75785
-0.499967
5.53656
-0.405977
5.32607
-0.314563
5.05813
-0.16975
4.91947
-0.0383805
4.87792
0.107488
4.8486
0.242218
4.87585
0.382711
4.92595
0.486078
5.03634
0.613327
5.33834
0.743972
5.54623
0.629469
6.51963
-0.0114544
8.95604
-0.436264
11.7661
-0.0931163
11.7987
0.0880263
12.0877
0.158143
10.9704
6.90308
0.0883755
6.88172
0.24124
10.9149
0.315709
11.9876
0.585111
11.48
0.793588
11.6254
0.0451236
9.83006
-0.442561
7.24412
-0.454217
5.54794
-0.37617
5.24757
-0.26239
4.94335
-0.15727
4.81401
-0.0293061
4.74961
0.0923862
4.72644
0.223148
4.74449
0.333902
4.81425
0.449708
4.91952
0.528106
5.25787
0.590228
5.48149
0.274244
6.8325
-0.625217
9.85466
-0.538178
11.6754
-0.186892
11.4435
-0.0584429
11.9446
-0.00921409
10.9357
6.90304
-0.124739
7.00143
-0.0137768
10.8017
0.0973973
11.8811
0.337399
11.2401
0.710649
11.2524
0.129967
10.4127
-0.360902
7.7348
-0.464557
5.65122
-0.376199
5.15866
-0.307717
4.87522
-0.203913
4.70961
-0.0965374
4.6418
0.0246655
4.60473
0.134068
4.63428
0.238555
4.7089
0.310239
4.84773
0.401161
5.16491
0.29873
5.58354
-0.202677
7.32703
-0.932895
10.5831
-0.584127
11.3278
-0.324422
11.1817
-0.224312
11.8467
-0.0600132
10.8061
6.86312
0.0536712
6.94289
0.238494
10.6144
0.28672
11.8291
0.480687
11.0432
0.903756
10.8265
0.808373
10.5078
0.0308122
8.51184
-0.311404
5.99333
-0.303819
5.15111
-0.209552
4.78
-0.127232
4.62645
-0.0266339
4.54041
0.0769708
4.50048
0.179724
4.53074
0.27072
4.61743
0.35733
4.76039
0.390856
5.12955
0.0799691
5.89123
-0.674627
8.07368
-0.850945
10.7573
-0.384975
10.8647
-0.142836
10.9342
-0.0899802
11.8018
0.0340254
10.7041
6.9201
0.0741641
6.86307
0.317758
10.3685
0.399258
11.7415
0.565016
10.8767
0.878497
10.5147
1.04003
10.3471
0.441564
9.11021
-0.0636347
6.49743
-0.20467
5.29021
-0.163021
4.73722
-0.0911375
4.55484
-0.0165928
4.46552
0.0743268
4.40916
0.153538
4.45108
0.236962
4.5336
0.304962
4.69149
0.219229
5.21245
-0.21073
6.31887
-0.954791
8.81171
-0.716548
10.5214
-0.394962
10.5487
-0.233254
10.7706
-0.181998
11.7529
0.0109291
10.5227
6.95283
-0.00281118
6.86156
0.166298
10.1949
0.275482
11.6311
0.416614
10.7324
0.649417
10.2753
1.05755
9.93397
0.794975
9.3709
0.0708812
7.22103
-0.206319
5.56741
-0.187049
4.71796
-0.126508
4.49396
-0.054843
4.39323
0.00985955
4.34442
0.0786085
4.38194
0.139342
4.47232
0.166269
4.66408
-0.118598
5.49497
-0.890453
7.08723
-1.27404
9.18936
-0.78251
10.0274
-0.5548
10.3229
-0.435604
10.6482
-0.356591
11.6788
-0.0832741
10.2519
6.88414
-0.00326587
6.86115
0.273787
9.9145
0.428722
11.4647
0.520857
10.6339
0.737307
10.0559
1.01982
9.65567
1.05004
9.33979
0.551505
7.72005
0.0313475
6.08683
-0.0959174
4.8446
-0.0597998
4.45704
-0.011743
4.34498
0.0374029
4.29528
0.0932303
4.32597
0.139193
4.42662
0.0453613
4.75722
-0.364652
5.90507
-0.945901
7.66269
-1.03397
9.27348
-0.703012
9.7054
-0.462217
10.0872
-0.377321
10.5631
-0.221435
11.5146
0.0493914
9.97995
6.93252
0.035494
6.8279
0.301236
9.63907
0.565371
11.1989
0.64608
10.5467
0.792757
9.9083
0.964885
9.4749
1.34342
8.9547
0.881685
8.17959
0.234373
6.73337
0.0115727
5.06749
-0.0115769
4.48052
0.0129612
4.32031
0.032909
4.27534
0.0630378
4.29577
0.0719276
4.41732
-0.130572
4.95937
-0.893143
6.66477
-1.32393
8.0904
-0.967969
8.91504
-0.727515
9.46263
-0.547386
9.91129
-0.47109
10.4846
-0.231356
11.2618
0.0219026
9.72127
6.9481
-0.00209693
-0.661877
0.0109121
-0.457259
0.0655333
-0.460832
0.124899
-0.560438
0.182914
-0.686531
0.235864
-0.817262
0.279211
-0.867502
0.297809
-0.827611
0.28598
-0.654026
0.255576
-0.424265
0.239251
-0.236516
0.285648
-0.231417
0.345837
-0.407646
0.382428
-0.635428
0.39016
-0.793675
0.399584
-0.903074
0.421035
-0.973816
0.440392
-1.0174
0.461046
-1.04724
0.483598
-1.08173
0.503144
-1.12185
0.520649
-1.15642
0.537903
-1.18227
0.553146
-1.20209
0.560965
-1.23126
0.563553
-1.25875
0.56396
-1.29799
0.517676
-1.37964
0.242853
-1.60638
-3.29858
0.0436773
-0.608749
0.068435
-0.458202
0.119622
-0.499603
0.170855
-0.60266
0.237557
-0.761039
0.295494
-0.896081
0.330204
-0.900715
0.325112
-0.808684
0.290075
-0.609665
0.232653
-0.370779
0.214689
-0.209145
0.237527
-0.203817
0.300433
-0.345963
0.348994
-0.570578
0.377901
-0.731647
0.405671
-0.856923
0.428153
-0.928778
0.44814
-0.979862
0.468202
-1.01516
0.489599
-1.05486
0.50978
-1.0935
0.526135
-1.12807
0.542186
-1.15939
0.559039
-1.19126
0.574305
-1.22165
0.581184
-1.27168
0.540119
-1.3631
0.419991
-1.57932
0.397531
-2.94605
-3.77897
0.030158
-0.554032
0.0588403
-0.47072
0.105385
-0.537317
0.159482
-0.652688
0.227842
-0.840445
0.27462
-0.944603
0.290844
-0.918861
0.271183
-0.772576
0.239779
-0.558358
0.195511
-0.319241
0.184153
-0.185206
0.198793
-0.173616
0.252257
-0.286232
0.305738
-0.50925
0.346378
-0.68158
0.375405
-0.812565
0.402046
-0.888476
0.425454
-0.945903
0.448104
-0.984474
0.471542
-1.02357
0.494552
-1.06487
0.513973
-1.10713
0.531137
-1.14122
0.549565
-1.17708
0.571042
-1.22368
0.561508
-1.31978
0.504235
-1.51423
0.381437
-2.08888
0.278523
-3.43821
-3.73312
0.0185894
-0.507316
0.0538727
-0.490626
0.0950914
-0.572357
0.145877
-0.706239
0.207348
-0.914078
0.237972
-0.985034
0.237491
-0.908903
0.214172
-0.723824
0.185394
-0.505383
0.153944
-0.27607
0.148788
-0.167448
0.156881
-0.152055
0.215986
-0.264159
0.273094
-0.467099
0.318422
-0.637389
0.352052
-0.765805
0.38145
-0.849472
0.407057
-0.910298
0.431292
-0.956514
0.454734
-0.994153
0.478804
-1.03938
0.503849
-1.08108
0.527097
-1.12016
0.546927
-1.16435
0.550171
-1.24223
0.522378
-1.40376
0.405225
-1.78668
0.370435
-3.27224
0.181197
-3.46379
-3.65461
0.026348
-0.482297
0.0592846
-0.504478
0.0946588
-0.603999
0.147625
-0.777975
0.198524
-0.982053
0.199614
-0.983069
0.175203
-0.856973
0.152359
-0.666288
0.126783
-0.451746
0.11188
-0.244534
0.109149
-0.150228
0.123541
-0.140531
0.179657
-0.253664
0.240233
-0.438994
0.290862
-0.605966
0.330528
-0.732068
0.365374
-0.817442
0.39375
-0.878781
0.419783
-0.927062
0.445104
-0.97173
0.472308
-1.01209
0.500401
-1.05789
0.527642
-1.10416
0.5425
-1.16931
0.537165
-1.29476
0.463412
-1.56455
0.39713
-2.70196
0.21057
-3.45428
0.1242
-3.42718
-3.61303
0.0339657
-0.476768
0.0638506
-0.522668
0.0945141
-0.636148
0.149005
-0.855754
0.167423
-1.00639
0.154993
-0.959113
0.12302
-0.799543
0.0945605
-0.596231
0.0722798
-0.395963
0.0685313
-0.220801
0.0715899
-0.137447
0.0965329
-0.14263
0.151877
-0.256293
0.217633
-0.427797
0.271718
-0.58293
0.315266
-0.709978
0.351959
-0.789888
0.382162
-0.852885
0.409664
-0.90134
0.437814
-0.944114
0.468177
-0.986811
0.498766
-1.03701
0.526938
-1.09397
0.531813
-1.1935
0.485386
-1.39565
0.352332
-1.90552
0.239846
-3.29331
0.138099
-3.38908
0.115271
-3.38653
-3.60439
0.0334845
-0.479059
0.0533607
-0.534148
0.0809669
-0.673938
0.117272
-0.911182
0.117735
-1.00496
0.0980546
-0.926845
0.0643875
-0.732533
0.0378045
-0.525587
0.0230225
-0.346098
0.0256683
-0.202808
0.0392494
-0.136123
0.0680325
-0.152476
0.125966
-0.283641
0.189751
-0.429744
0.247825
-0.569744
0.294716
-0.691784
0.333666
-0.766451
0.366764
-0.828246
0.397301
-0.875471
0.428151
-0.921037
0.46175
-0.96914
0.494975
-1.02576
0.52106
-1.10445
0.506494
-1.25279
0.392771
-1.574
0.305019
-2.97931
0.133588
-3.29226
0.125066
-3.33331
0.119371
-3.35704
-3.62879
0.0246822
-0.477054
0.0392049
-0.544299
0.0613556
-0.710653
0.0721247
-0.937405
0.0607674
-0.994584
0.0348779
-0.884915
0.00634632
-0.666494
-0.0181233
-0.475456
-0.0239225
-0.316465
-0.013003
-0.199303
0.0110032
-0.147041
0.0453564
-0.172579
0.107931
-0.317885
0.168014
-0.448103
0.226568
-0.568405
0.274886
-0.672196
0.316267
-0.746046
0.351592
-0.806062
0.384259
-0.85318
0.41773
-0.903768
0.453045
-0.958409
0.486431
-1.02584
0.492515
-1.13889
0.438661
-1.35557
0.317777
-1.91113
0.158675
-3.24705
0.0996693
-3.19899
0.12516
-3.29177
0.122067
-3.38671
-3.63237
0.01466
-0.469683
0.0218445
-0.551465
0.0273932
-0.733271
0.0195526
-0.94271
0.00314485
-0.976185
-0.0289569
-0.839953
-0.0546456
-0.617492
-0.0684608
-0.449044
-0.0657309
-0.309713
-0.04831
-0.207526
-0.0165096
-0.175538
0.0267854
-0.207774
0.0889956
-0.341759
0.15109
-0.464011
0.205456
-0.572853
0.252333
-0.660141
0.295199
-0.730371
0.332848
-0.788153
0.368211
-0.838238
0.404745
-0.894087
0.44199
-0.956477
0.464477
-1.0441
0.456204
-1.19995
0.337741
-1.5266
0.214236
-2.88537
0.0689151
-3.14947
0.092181
-3.13379
0.136796
-3.2871
0.131005
-3.38232
-3.59247
0.00529434
-0.455177
0.00178088
-0.550217
-0.0108091
-0.736121
-0.0303858
-0.930212
-0.0594662
-0.945321
-0.0927026
-0.795555
-0.105619
-0.58831
-0.110257
-0.439195
-0.100814
-0.318409
-0.075588
-0.232819
-0.0380984
-0.221799
0.0128771
-0.266256
0.0709949
-0.37783
0.132012
-0.481983
0.183865
-0.579808
0.23043
-0.65659
0.274002
-0.722319
0.313451
-0.778135
0.352123
-0.832494
0.390878
-0.892144
0.427831
-0.964106
0.436605
-1.08068
0.388612
-1.30069
0.274088
-1.84837
0.088727
-2.99973
0.0404686
-3.02809
0.09071
-3.13008
0.141806
-3.27938
0.140593
-3.36689
-3.52836
-0.00406084
-0.43682
-0.0197789
-0.538662
-0.0456421
-0.723616
-0.0780323
-0.896116
-0.112185
-0.908537
-0.141834
-0.757181
-0.146096
-0.581398
-0.138926
-0.454046
-0.125033
-0.342722
-0.0971646
-0.282622
-0.0553705
-0.286377
0.00284578
-0.334818
0.0545505
-0.424125
0.109281
-0.506846
0.159866
-0.590804
0.206235
-0.659481
0.250722
-0.721203
0.292862
-0.776227
0.334859
-0.832237
0.375013
-0.897088
0.402682
-0.986592
0.396202
-1.14346
0.287539
-1.46835
0.156672
-2.71096
0.0221748
-2.86583
0.0336876
-2.96694
0.0981669
-3.09157
0.14502
-3.26059
0.134283
-3.33015
-3.45661
-0.013493
-0.413317
-0.0385233
-0.517755
-0.073063
-0.697334
-0.115475
-0.847217
-0.161253
-0.860206
-0.179294
-0.740134
-0.17777
-0.60158
-0.166948
-0.493173
-0.148412
-0.403807
-0.116081
-0.344944
-0.0716826
-0.365572
-0.0167105
-0.408484
0.0351356
-0.473426
0.0859156
-0.538171
0.133245
-0.606698
0.180274
-0.668417
0.226626
-0.726348
0.271509
-0.780343
0.315506
-0.838953
0.354415
-0.913297
0.368921
-1.02875
0.331137
-1.24831
0.227889
-1.792
0.0552898
-2.82872
0.00291142
-2.78437
0.0339855
-2.9309
0.0974644
-3.07525
0.13193
-3.22232
0.105582
-3.17031
-3.41345
-0.022839
-0.381948
-0.0557473
-0.488978
-0.0965316
-0.659187
-0.148798
-0.785055
-0.203889
-0.797891
-0.212795
-0.737099
-0.214419
-0.630189
-0.202745
-0.553992
-0.177143
-0.477149
-0.140604
-0.434723
-0.0943692
-0.460282
-0.0423388
-0.48225
0.0106798
-0.524803
0.0585297
-0.573083
0.105743
-0.631508
0.153483
-0.683911
0.202219
-0.737973
0.249708
-0.790914
0.29427
-0.854667
0.324292
-0.946113
0.319559
-1.10255
0.228427
-1.43309
0.112433
-2.5641
-0.00250992
-2.72532
-0.00135529
-2.75036
0.0315341
-2.9011
0.0862532
-3.07256
0.116374
-3.17862
0.0870052
-3.20005
-3.37663
-0.032363
-0.34287
-0.0729532
-0.45172
-0.118873
-0.60987
-0.176313
-0.715993
-0.229865
-0.732287
-0.249304
-0.707004
-0.254747
-0.63119
-0.242101
-0.599914
-0.215348
-0.541289
-0.174252
-0.51836
-0.126621
-0.529181
-0.074615
-0.542168
-0.0218838
-0.573417
0.0294104
-0.606028
0.0782129
-0.658166
0.128352
-0.706421
0.179661
-0.757755
0.228681
-0.812486
0.271362
-0.885166
0.288817
-1.00378
0.254879
-1.23557
0.170103
-2.05447
0.0259877
-2.63479
-0.0160593
-2.63995
-0.00415739
-2.71968
0.0266295
-2.90109
0.0755978
-3.05101
0.107586
-3.1482
0.0818774
-3.20529
-3.33505
-0.0399588
-0.297779
-0.0898577
-0.403737
-0.142007
-0.550679
-0.203789
-0.639253
-0.253704
-0.669773
-0.277216
-0.668168
-0.283528
-0.613602
-0.27871
-0.599656
-0.249656
-0.574182
-0.210963
-0.558418
-0.163191
-0.567009
-0.109285