/*--------------------------------*- C++ -*----------------------------------*\
| =========                 |                                                 |
| \\      /  F ield         | OpenFOAM: The Open Source CFD Toolbox           |
|  \\    /   O peration     | Version:  2112                                  |
|   \\  /    A nd           | Website:  www.openfoam.com                      |
|    \\/     M anipulation  |                                                 |
\*---------------------------------------------------------------------------*/
FoamFile
{
    version     2.0;
    format      ascii;
    arch        "LSB;label=32;scalar=64";
    class       volScalarField;
    location    "0.00934";
    object      nut;
}
// * * * * * * * * * * * * * * * * * * * * * * * * * * * * * * * * * * * * * //

dimensions      [0 2 -1 0 0 0 0];

internalField   nonuniform List<scalar> 
13875
(
0.0511675
0.0366254
0.0343659
0.0343295
0.0342992
0.0343335
0.0342897
0.0342754
0.034317
0.0343108
0.0342806
0.034289
0.0343221
0.0343418
0.0343306
0.0342933
0.0342676
0.0342894
0.0343023
0.0343266
0.0343037
0.0343342
0.0343819
0.0365579
0.0514351
0.0532619
0.0341199
0.0322224
0.0321065
0.0320622
0.032081
0.0320309
0.03201
0.0320532
0.0320643
0.032027
0.0320423
0.0320536
0.0320725
0.0320605
0.032047
0.0320037
0.032034
0.032046
0.0320759
0.0320635
0.0321024
0.032228
0.0340478
0.0536486
0.0564569
0.0335618
0.0318029
0.0315925
0.0315676
0.0315741
0.0314656
0.0314241
0.0314608
0.0314722
0.0314366
0.0314598
0.0315301
0.0315557
0.0315347
0.0314644
0.0314078
0.0314446
0.031478
0.0315677
0.0315643
0.0315802
0.0317939
0.0334932
0.0566047
0.0590705
0.0332328
0.0314895
0.0312761
0.0312603
0.031261
0.0311409
0.031097
0.0311255
0.031122
0.0310896
0.0311133
0.0312134
0.0312398
0.0312183
0.0311165
0.0310725
0.0311019
0.0311463
0.0312539
0.0312551
0.0312625
0.0314843
0.0331711
0.0591491
0.0611259
0.0330041
0.0312463
0.0310023
0.030983
0.0309784
0.0308533
0.0308112
0.0308381
0.0308325
0.0308012
0.0308236
0.0309252
0.0309545
0.0309298
0.0308269
0.030786
0.0308143
0.0308592
0.0309688
0.0309766
0.0309898
0.0312298
0.0329219
0.0612573
0.0628186
0.0328483
0.0310893
0.0307709
0.0307501
0.030729
0.0305933
0.0305521
0.030575
0.0305685
0.0305386
0.0305597
0.0306634
0.0306948
0.0306677
0.0305623
0.0305256
0.0305531
0.0305997
0.0307199
0.0307436
0.0307612
0.0310589
0.0328241
0.0629664
0.064827
0.0330733
0.0311041
0.0306324
0.0305666
0.0305221
0.030366
0.0303226
0.030339
0.0303277
0.0303019
0.0303219
0.0304282
0.0304587
0.0304285
0.0303216
0.0302926
0.0303203
0.030376
0.0305121
0.0305601
0.0306332
0.0311136
0.033071
0.064858
0.0670935
0.0339365
0.031425
0.0306504
0.030483
0.0303701
0.0301832
0.030124
0.0301291
0.0301153
0.0300949
0.0301094
0.03022
0.0302518
0.0302189
0.0301076
0.0300887
0.0301206
0.0301897
0.0303573
0.0304673
0.0306299
0.0313929
0.0338964
0.067353
0.0736455
0.0362965
0.0320414
0.0308465
0.0304735
0.030279
0.0300477
0.0299672
0.0299569
0.029937
0.0299256
0.0299352
0.0300496
0.030083
0.0300493
0.0299347
0.0299225
0.0299581
0.0300439
0.0302597
0.0304504
0.0308025
0.0319359
0.0360017
0.0741931
0.0828994
0.0384716
0.0327372
0.0311896
0.0305796
0.0302455
0.0299787
0.0298831
0.029857
0.0298326
0.0298273
0.0298354
0.0299475
0.0299818
0.0299501
0.0298468
0.0298323
0.0298727
0.0299652
0.03022
0.0305504
0.0310812
0.032624
0.0381063
0.0835501
0.0907215
0.0441441
0.0346507
0.0319948
0.0308154
0.0303619
0.0300484
0.0299075
0.0298627
0.0298349
0.0298275
0.0298347
0.029939
0.0299744
0.0299512
0.0298724
0.0298559
0.0299032
0.0300351
0.0303038
0.0307944
0.0318816
0.0343633
0.0432645
0.0893496
0.0950605
0.0545322
0.0403847
0.0334556
0.0318695
0.0308357
0.0303316
0.030131
0.0300514
0.0300136
0.0299981
0.0300063
0.0300936
0.0301322
0.0301219
0.0300723
0.030064
0.0301365
0.030321
0.0308357
0.0317992
0.0332289
0.0398485
0.0533661
0.0942622
0.0866057
0.0688448
0.0515384
0.0417706
0.0343656
0.0319307
0.0312743
0.0308188
0.0306374
0.0305521
0.030512
0.0305113
0.0305765
0.0306181
0.0306292
0.0306237
0.030676
0.0308696
0.0313303
0.0320043
0.0347659
0.0415816
0.050954
0.0687638
0.0866038
0.079607
0.0660309
0.0581596
0.0654937
0.0417037
0.0371349
0.0336236
0.03243
0.0320355
0.031977
0.0319438
0.0319383
0.0319966
0.0320396
0.032066
0.0320912
0.0321394
0.032533
0.0340772
0.038259
0.0432083
0.0657149
0.0578353
0.0661731
0.081612
0.0753345
0.0643527
0.0565747
0.0605312
0.0562016
0.0537212
0.044217
0.0388141
0.0367184
0.0358799
0.0355083
0.0353846
0.0354028
0.0354597
0.0355702
0.0358691
0.0366709
0.0389024
0.0451665
0.0552246
0.0557422
0.0612474
0.056599
0.0641526
0.0746634
0.0671766
0.061886
0.0542801
0.0571829
0.0560636
0.0571601
0.0544121
0.0530603
0.050773
0.0483026
0.0474709
0.0471283
0.047038
0.0471196
0.0472809
0.047784
0.0504411
0.0542635
0.0554438
0.0577162
0.0556139
0.0580076
0.05431
0.061496
0.0664791
0.0624148
0.0582128
0.0524281
0.0549581
0.0567951
0.0612016
0.0680677
0.0728668
0.0700908
0.0707273
0.0730479
0.0745222
0.0752923
0.0749812
0.0734666
0.0726625
0.0700855
0.0728805
0.068686
0.0611886
0.056294
0.0552989
0.0519621
0.0575755
0.0624358
0.0570113
0.0546857
0.0530325
0.0568205
0.0599398
0.0630206
0.0708334
0.0791347
0.0744507
0.0703793
0.0692679
0.0693725
0.0699051
0.0696287
0.0697867
0.0726918
0.0739744
0.076759
0.0708461
0.0641762
0.0609434
0.0576533
0.0528204
0.0542645
0.0567881
0.0513844
0.0541495
0.055811
0.0617235
0.0669121
0.0648584
0.0673366
0.0751823
0.0744162
0.0705058
0.0687347
0.0683528
0.0684315
0.0689173
0.069873
0.0717818
0.0728957
0.073129
0.067727
0.0667277
0.0696706
0.0630088
0.056248
0.0544071
0.0521549
0.0493726
0.0573232
0.0602924
0.0656525
0.0686791
0.0645967
0.063914
0.0695147
0.0719319
0.0705115
0.0687562
0.0672249
0.0664941
0.0680782
0.0700687
0.0710048
0.0699435
0.0678198
0.0645461
0.0665405
0.0707443
0.0664532
0.060879
0.0576388
0.0487789
0.0774467
0.088717
0.0774066
0.0652856
0.0650047
0.0616208
0.0606955
0.0655184
0.0694414
0.0695512
0.0677057
0.0652279
0.0640576
0.0663802
0.069076
0.0695506
0.0672412
0.0640943
0.0614568
0.0634629
0.0667603
0.0669086
0.0798994
0.0917794
0.0822948
0.128332
0.161136
0.090063
0.0620422
0.0608811
0.0586042
0.058036
0.0625353
0.0670091
0.0678918
0.0659491
0.0628406
0.0613961
0.0641243
0.0673004
0.0676187
0.0647595
0.061372
0.0587196
0.0602087
0.062313
0.0637871
0.0931555
0.165488
0.134472
0.152674
0.145708
0.0842356
0.0591947
0.0575388
0.0560285
0.05566
0.0600929
0.0646964
0.0658556
0.0637419
0.06031
0.0586842
0.061526
0.0650375
0.0655156
0.0624557
0.0590851
0.0562355
0.057286
0.0586669
0.06069
0.0839113
0.144431
0.153452
0.161338
0.146182
0.0767778
0.057023
0.0547419
0.0536764
0.0536129
0.0578656
0.0624569
0.0636538
0.0613131
0.0576901
0.0561037
0.0589894
0.0627123
0.0634062
0.0602039
0.0568348
0.0541632
0.0548142
0.0558573
0.0585594
0.0777036
0.150482
0.160706
0.167181
0.147294
0.0727113
0.05544
0.0526674
0.0516854
0.0519517
0.0559046
0.0602662
0.0613582
0.0589264
0.0552636
0.0537145
0.0565691
0.0604023
0.0612124
0.0581126
0.0548264
0.0523705
0.0527141
0.0538202
0.0570089
0.0744178
0.154292
0.16751
0.174619
0.150827
0.0699338
0.053949
0.0510467
0.0500002
0.0505961
0.0541924
0.0581793
0.0591151
0.0566913
0.0530371
0.0515185
0.0542661
0.0580805
0.0590093
0.0561886
0.0530628
0.0507871
0.05082
0.0521424
0.0553266
0.0714659
0.156928
0.177194
0.184309
0.146961
0.0667187
0.0525308
0.0497907
0.0486304
0.0494618
0.0526894
0.056151
0.0567873
0.0544267
0.0509684
0.049534
0.0522305
0.0559608
0.0569269
0.0544359
0.0515196
0.0494169
0.0493045
0.0509106
0.0539879
0.06894
0.155229
0.184346
0.190081
0.146326
0.0648343
0.0514475
0.0488182
0.0475697
0.0484708
0.0513323
0.0543036
0.0547062
0.0524305
0.0491199
0.0477342
0.0503056
0.053891
0.0549372
0.0528381
0.0501855
0.0482638
0.0481052
0.0498106
0.0527716
0.0671251
0.155627
0.192035
0.195155
0.14837
0.0637197
0.0505615
0.0480233
0.0468177
0.0476106
0.0500969
0.0525916
0.0527569
0.0506094
0.0474696
0.0461014
0.0485334
0.0519018
0.0529878
0.0513314
0.0489875
0.047259
0.0471251
0.048812
0.0517093
0.0652445
0.150956
0.200146
0.202087
0.145528
0.0627626
0.0498503
0.0472381
0.0462214
0.0469525
0.0489907
0.0509457
0.0508549
0.0488149
0.0459058
0.0446277
0.0469979
0.0502341
0.0513182
0.0499715
0.047923
0.0464339
0.0463564
0.0479013
0.0509384
0.0645636
0.151732
0.20387
0.204294
0.141747
0.0622276
0.0494306
0.0465489
0.0456572
0.0463335
0.0479738
0.0494782
0.0491875
0.0472779
0.0445395
0.0432909
0.045549
0.0485857
0.0496743
0.0487058
0.0469994
0.0457647
0.0456705
0.0470224
0.0503292
0.0636832
0.14693
0.209131
0.206794
0.141575
0.0621521
0.0493139
0.0459288
0.045091
0.0457481
0.0470662
0.0481774
0.0477328
0.0459129
0.0433013
0.0420891
0.0442096
0.0471113
0.0482393
0.047563
0.046174
0.0451379
0.0449973
0.046244
0.0500099
0.0631108
0.14365
0.2117
0.210952
0.137165
0.0618369
0.0493798
0.0454556
0.044622
0.0451511
0.0462064
0.0469098
0.0463105
0.0445907
0.0421552
0.0410039
0.0430687
0.0458298
0.0469381
0.0465073
0.0454181
0.0445112
0.044416
0.0456587
0.049952
0.0631431
0.143067
0.213512
0.212022
0.134728
0.0616777
0.0496779
0.0451544
0.0441859
0.0445133
0.0454101
0.0457999
0.0450994
0.0434632
0.0411324
0.0400213
0.0419556
0.0446115
0.0457464
0.045531
0.0447294
0.0439009
0.0438943
0.0452419
0.0500809
0.0632777
0.139866
0.216024
0.213032
0.134389
0.0613989
0.0500503
0.0451982
0.0437925
0.0439259
0.0446274
0.0447867
0.0439846
0.0424305
0.0402103
0.0391344
0.0409735
0.0434882
0.0446307
0.0446175
0.0440331
0.0433386
0.0435046
0.045144
0.0504339
0.0629849
0.137853
0.216901
0.215143
0.132629
0.0610174
0.0504371
0.0454508
0.0434845
0.0433768
0.0438561
0.0438301
0.0429611
0.0414525
0.0393362
0.0383252
0.0400846
0.0425408
0.0436801
0.0437835
0.0433435
0.0428232
0.0431498
0.0453575
0.0509336
0.0627953
0.138346
0.217782
0.215469
0.132722
0.060863
0.0512312
0.045916
0.0433065
0.0429049
0.0431306
0.0429384
0.0420395
0.0405897
0.0385665
0.0375916
0.0392643
0.0415983
0.0427398
0.0429632
0.0426997
0.0423541
0.0429236
0.045754
0.0516904
0.0623463
0.13679
0.219184
0.215528
0.135007
0.0607358
0.0520055
0.0465379
0.0433442
0.042453
0.0424528
0.0421205
0.0412178
0.0398215
0.0378512
0.0369164
0.038495
0.0407702
0.0419041
0.0421882
0.0421012
0.041917
0.0429342
0.0463999
0.0524574
0.0618755
0.137636
0.219069
0.215922
0.1348
0.0602014
0.0522146
0.0473903
0.0435992
0.0421229
0.0418453
0.0413376
0.0404079
0.0390575
0.0371876
0.036307
0.0378336
0.040022
0.0411286
0.0414831
0.0415622
0.0415826
0.0431318
0.0472961
0.0527862
0.0614018
0.140266
0.218721
0.215056
0.13678
0.0596975
0.052215
0.0484715
0.044028
0.0419505
0.0413245
0.0406525
0.0397092
0.0384053
0.036584
0.0357393
0.0371739
0.039316
0.0404094
0.0408246
0.0411075
0.0414414
0.0435572
0.0482601
0.0526633
0.060857
0.141382
0.21865
0.214531
0.139361
0.0595095
0.0521146
0.0498863
0.0446885
0.0419799
0.040948
0.0400539
0.0390602
0.0377863
0.0360291
0.035221
0.0365809
0.0386379
0.0397381
0.0402542
0.040772
0.0415188
0.0441851
0.049876
0.0525476
0.0604963
0.143611
0.217549
0.214652
0.141182
0.0592222
0.0517055
0.0505839
0.0455427
0.0421386
0.0407738
0.0395587
0.0384713
0.037205
0.0354941
0.0347342
0.0360415
0.0380732
0.0391692
0.0397956
0.0406038
0.0417047
0.0451395
0.0509963
0.0523639
0.0610355
0.14632
0.21679
0.213889
0.143467
0.0592146
0.0511728
0.0505934
0.0468898
0.0425214
0.0407633
0.0392162
0.0379621
0.0366817
0.0350153
0.0342865
0.0355304
0.0375003
0.0386316
0.0394409
0.0406135
0.042089
0.0463623
0.0510343
0.0517991
0.0608996
0.148206
0.216616
0.213349
0.145838
0.0602492
0.0506701
0.0502216
0.0486333
0.0432437
0.0408371
0.0390567
0.0375829
0.036234
0.0345671
0.0338667
0.0350542
0.0369942
0.0381958
0.0392529
0.0407402
0.042865
0.0483393
0.0507115
0.0512271
0.061301
0.150339
0.215931
0.213119
0.147931
0.060241
0.050132
0.0496278
0.0495485
0.0445381
0.0410963
0.0389964
0.0373335
0.035842
0.034168
0.0334936
0.0346514
0.0366069
0.0379102
0.0391999
0.041044
0.0443535
0.0495555
0.0501437
0.050866
0.0625239
0.152555
0.215484
0.212197
0.149894
0.0614076
0.0498354
0.0489561
0.049242
0.0467089
0.04179
0.0390781
0.037255
0.03561
0.0338669
0.0331805
0.0343228
0.0363305
0.0377958
0.0392482
0.0417074
0.0464884
0.0493344
0.0494528
0.0504254
0.0630416
0.154537
0.215134
0.211142
0.151931
0.0630147
0.0497664
0.0483713
0.0487389
0.0479737
0.0434464
0.0393239
0.0372167
0.0355119
0.033701
0.0329166
0.0341211
0.0361963
0.037761
0.0394515
0.0432887
0.047981
0.0488471
0.0488226
0.0501949
0.0638692
0.156411
0.21409
0.209127
0.153198
0.063764
0.0496591
0.0478738
0.0480935
0.0477076
0.0457278
0.0401201
0.0372654
0.0354736
0.0336351
0.0327841
0.0340473
0.0361604
0.0378287
0.0402424
0.0457129
0.0478763
0.0481817
0.0483124
0.0502543
0.0654849
0.157732
0.211768
0.205695
0.153339
0.0647545
0.0497381
0.0474808
0.0473702
0.0472748
0.0472602
0.0419002
0.0375695
0.0355191
0.0336286
0.0327753
0.0340316
0.0361843
0.0380906
0.0419161
0.0474891
0.0474544
0.047427
0.047867
0.0502758
0.066038
0.157852
0.208424
0.196821
0.150269
0.0655547
0.0498476
0.0471827
0.04677
0.0467141
0.0470799
0.0445109
0.0386849
0.0357338
0.0336722
0.0327941
0.0340615
0.0363371
0.039082
0.0445628
0.0474763
0.0468967
0.0467977
0.0475022
0.0502758
0.0663443
0.154573
0.199497
0.382466
1.56365
2.06945
2.04963
1.85008
1.64315
1.46192
1.29795
1.13581
0.969927
0.808255
0.669277
0.564107
0.491121
0.444328
0.414819
0.395328
0.381056
0.369106
0.358245
0.347185
0.335664
0.32321
0.308646
0.290708
0.269001
0.242401
0.20676
0.156934
0.108568
0.366945
1.64581
2.13296
2.07949
1.86288
1.65162
1.47034
1.30933
1.15274
0.993848
0.837687
0.698185
0.587262
0.508512
0.455367
0.42111
0.398419
0.381801
0.368209
0.356181
0.344359
0.332482
0.319613
0.304513
0.286074
0.264108
0.237404
0.201795
0.152835
0.107068
0.392634
1.80967
2.20019
2.11026
1.88126
1.66699
1.48607
1.32677
1.17405
1.01979
0.866845
0.727313
0.611011
0.525573
0.466179
0.426751
0.400599
0.381435
0.366252
0.353141
0.340846
0.328832
0.315075
0.298729
0.280196
0.2587
0.232105
0.196921
0.149117
0.105744
0.413347
1.89422
2.26877
2.15784
1.91679
1.69636
1.51413
1.35614
1.20653
1.05713
0.906556
0.765647
0.643016
0.548693
0.481655
0.435785
0.405286
0.383263
0.36621
0.352062
0.339148
0.326099
0.311369
0.294535
0.275605
0.254091
0.227634
0.192733
0.146089
0.104768
0.421381
1.96619
2.34577
2.21848
1.96513
1.73808
1.55372
1.39683
1.2497
1.10327
0.953427
0.809168
0.680907
0.576663
0.500054
0.447453
0.411908
0.386656
0.36767
0.35201
0.337357
0.322588
0.30737
0.290479
0.271772
0.250135
0.22382
0.189043
0.143479
0.103902
0.429134
2.04578
2.42893
2.2866
2.02094
1.78803
1.6013
1.44528
1.30064
1.15602
1.00626
0.859624
0.725856
0.611851
0.52478
0.463487
0.421695
0.392328
0.370403
0.351771
0.33587
0.320019
0.304201
0.287168
0.268497
0.246854
0.220253
0.185416
0.140912
0.103029
0.438702
2.12834
2.51616
2.36124
2.08452
1.84528
1.65679
1.50225
1.36003
1.21697
1.0671
0.918652
0.779247
0.655374
0.557372
0.485306
0.435101
0.399677
0.372956
0.352028
0.334317
0.317617
0.30148
0.284306
0.265295
0.243451
0.216633
0.181841
0.138419
0.102233
0.449178
2.2124
2.60782
2.44439
2.15565
1.91034
1.72094
1.56827
1.42849
1.28724
1.1381
0.98878
0.843413
0.710591
0.599719
0.514575
0.45351
0.409964
0.377825
0.353625
0.333583
0.315918
0.299386
0.281516
0.262353
0.240258
0.213199
0.178492
0.136107
0.101552
0.459577
2.29497
2.70494
2.53648
2.23723
1.98503
1.79539
1.64438
1.50715
1.36818
1.22124
1.07075
0.91998
0.777961
0.653429
0.553766
0.479032
0.424605
0.385425
0.356679
0.333932
0.315106
0.297208
0.279079
0.259616
0.237159
0.209922
0.175317
0.133873
0.100935
0.468473
2.37732
2.8071
2.63833
2.33093
2.07135
1.88069
1.73122
1.59663
1.46038
1.31597
1.16436
1.00965
0.858929
0.721406
0.605461
0.514354
0.44612
0.397235
0.362299
0.33606
0.314998
0.295816
0.2771
0.257395
0.234634
0.207172
0.172555
0.13178
0.10044
0.476739
2.45773
2.91377
2.74965
2.43699
2.17012
1.97721
1.82904
1.6972
1.56385
1.42098
1.26908
1.11205
0.954579
0.804546
0.671385
0.561501
0.476254
0.414678
0.371491
0.34035
0.315953
0.295105
0.276027
0.255374
0.232039
0.204328
0.169796
0.13012
0.100028
0.484483
2.53873
3.02509
2.86858
2.55418
2.28121
2.08512
1.93773
1.80855
1.67672
1.53378
1.38327
1.22585
1.06338
0.902473
0.752461
0.622422
0.517765
0.440287
0.385717
0.347474
0.318678
0.295807
0.275111
0.253421
0.229641
0.201663
0.167242
0.128566
0.0996946
0.49325
2.62217
3.13929
2.9933
2.67945
2.40277
2.20331
2.05646
1.92832
1.79597
1.65566
1.50718
1.34951
1.18291
1.01353
0.848602
0.698597
0.572357
0.476093
0.406966
0.358783
0.323924
0.29779
0.274673
0.252023
0.227626
0.199282
0.164929
0.127133
0.0993879
0.501068
2.70926
3.2539
3.1217
2.81064
2.53186
2.33237
2.18437
2.0542
1.92204
1.78623
1.63998
1.48192
1.3117
1.13539
0.958851
0.791061
0.643355
0.524849
0.437263
0.375743
0.332256
0.300981
0.275249
0.251285
0.226069
0.197291
0.162992
0.125904
0.0991228
0.508357
2.79387
3.36609
3.25142
2.94631
2.66789
2.47007
2.31931
2.18504
2.05655
1.92427
1.77971
1.62082
1.44795
1.26603
1.08052
0.898686
0.730557
0.588097
0.477994
0.39874
0.344417
0.306033
0.277076
0.251311
0.225093
0.195797
0.161488
0.124889
0.0987624
0.514071
2.87261
3.4739
3.37963
3.08557
2.81079
2.61293
2.45757
2.32268
2.19759
2.06802
1.92498
1.76556
1.59082
1.40427
1.21108
1.01807
0.832094
0.665607
0.530054
0.430269
0.361091
0.314054
0.280342
0.252066
0.224714
0.194762
0.160317
0.124021
0.0985893
0.519992
2.94187
3.57578
3.50234
3.22493
2.95803
2.7606
2.59999
2.46502
2.34229
2.21569
2.07468
1.91557
1.7397
1.55012
1.35087
1.1481
0.946392
0.757513
0.595993
0.472285
0.384435
0.325825
0.285569
0.254117
0.224948
0.19405
0.159265
0.123145
0.098678
0.525885
3.00025
3.66913
3.61651
3.36083
3.10808
2.91081
2.7466
2.61241
2.49084
2.36716
2.22844
2.0704
1.8944
1.70323
1.49998
1.28935
1.07361
0.865065
0.678093
0.527415
0.416773
0.342989
0.293744
0.257782
0.225975
0.193706
0.15829
0.122351
0.0988218
0.529767
3.04468
3.74463
3.71885
3.49
3.2565
3.06205
2.89781
2.76508
2.6442
2.5226
2.38557
2.2295
2.05416
1.86174
1.65487
1.43771
1.21106
0.986595
0.776629
0.597421
0.460223
0.366941
0.305773
0.263178
0.228059
0.193974
0.15765
0.121757
0.0990092
0.532229
3.07392
3.79423
3.80281
3.60631
3.4003
3.21422
3.05344
2.9226
2.80387
2.68252
2.54596
2.39258
2.21872
2.02551
1.81574
1.59245
1.35699
1.11905
0.889274
0.682632
0.516285
0.39925
0.32232
0.270945
0.231461
0.194981
0.157525
0.121368
0.0991587
0.535454
3.07886
3.80977
3.85839
3.70556
3.5359
3.3661
3.21281
3.08516
2.96876
2.84798
2.71303
2.56163
2.38933
2.19552
1.98258
1.75323
1.51058
1.2603
1.01434
0.783313
0.58663
0.441565
0.344645
0.281712
0.236497
0.196967
0.158
0.121107
0.0993394
0.536489
3.06189
3.78071
3.87381
3.78231
3.65929
3.5158
3.37496
3.25311
3.1401
3.02148
2.88972
2.73976
2.56821
2.37319
2.15583
1.9202
1.67039
1.40941
1.14977
0.897865
0.671181
0.495429
0.373908
0.296227
0.243209
0.199989
0.158917
0.121134
0.0996191
0.538992
2.99191
3.68199
3.82692
3.82368
3.76544
3.65942
3.53917
3.4274
3.31914
3.20491
3.07643
2.9282
2.75616
2.55835
2.33498
2.09286
1.83549
1.56592
1.29194
1.02143
0.768267
0.560839
0.410839
0.314284
0.251194
0.20322
0.159981
0.121175
0.0998902
0.535038
2.81221
3.45088
3.69408
3.82061
3.84889
3.79371
3.70248
3.60536
3.50553
3.39782
3.27301
3.12622
2.9518
2.74925
2.52038
2.27108
2.00638
1.72808
1.4384
1.15133
0.876493
0.638775
0.457476
0.337531
0.261496
0.207401
0.161598
0.121379
0.100199
0.521853
2.23007
2.90224
3.39943
3.74351
3.89531
3.91086
3.85991
3.78561
3.69763
3.59684
3.47739
3.33104
3.15399
2.94615
2.71229
2.45508
2.18171
1.89319
1.59206
1.29092
0.997566
0.730664
0.516382
0.368516
0.275894
0.213618
0.164018
0.121698
0.100412
0.108205
0.156305
0.206221
0.241977
0.26866
0.29026
0.307901
0.322504
0.335038
0.3465
0.357292
0.367821
0.379575
0.394204
0.414443
0.445444
0.49461
0.570495
0.680958
0.825205
0.990057
1.15748
1.31974
1.48455
1.66993
1.88334
2.08881
2.10677
1.58545
0.385926
0.106711
0.152357
0.20133
0.237109
0.263926
0.285809
0.303864
0.318835
0.331736
0.343675
0.355228
0.367
0.380355
0.397203
0.420462
0.45593
0.510454
0.591823
0.70616
0.849347
1.00779
1.16845
1.32561
1.48807
1.67372
1.89185
2.11481
2.16852
1.66793
0.370371
0.105399
0.148751
0.196458
0.231977
0.258726
0.280678
0.299269
0.314641
0.327904
0.340273
0.352484
0.365447
0.380483
0.399595
0.425932
0.465542
0.525626
0.612956
0.731341
0.873692
1.02844
1.18436
1.338
1.49897
1.68441
1.90598
2.14254
2.23516
1.83313
0.396079
0.104441
0.145728
0.192284
0.227674
0.25452
0.276787
0.295853
0.312244
0.325779
0.338244
0.351255
0.365504
0.382648
0.40459
0.434855
0.47976
0.546799
0.64205
0.765762
0.907727
1.05946
1.21114
1.36188
1.52196
1.70906
1.93716
2.1867
2.3017
1.91722
0.417094
0.103617
0.143163
0.188636
0.223874
0.25059
0.272708
0.291868
0.308721
0.323758
0.33735
0.351001
0.366717
0.386029
0.411272
0.446403
0.498037
0.573472
0.677105
0.80607
0.950467
1.10136
1.24877
1.39751
1.55717
1.74659
1.98141
2.24459
2.37679
1.98787
0.424897
0.102785
0.14068
0.185301
0.220299
0.247497
0.269562
0.288801
0.305949
0.321788
0.33733
0.352443
0.369811
0.39156
0.420846
0.462104
0.522177
0.607852
0.720205
0.852999
0.99895
1.14937
1.2953
1.44171
1.60014
1.7924
2.03373
2.31012
2.45827
2.06604
0.432216
0.102021
0.138351
0.182084
0.217043
0.244408
0.266637
0.285785
0.30314
0.319564
0.336385
0.353742
0.374115
0.399732
0.434588
0.483624
0.553706
0.650265
0.771468
0.909046
1.05544
1.20514
1.3505
1.49493
1.65272
1.8451
2.09373
2.38234
2.54388
2.14735
0.442202
0.101365
0.136241
0.179116
0.214122
0.241541
0.264071
0.283434
0.301179
0.318282
0.33616
0.355996
0.379438
0.410237
0.45239
0.511519
0.593329
0.701561
0.831971
0.975381
1.12291
1.27079
1.41461
1.55699
1.71314
1.90631
2.16255
2.46362
2.63418
2.22963
0.451979
0.100774
0.134254
0.176249
0.21124
0.238775
0.26145
0.281074
0.299086
0.317105
0.336612
0.359569
0.387301
0.424659
0.476656
0.548625
0.644374
0.765805
0.905634
1.05409
1.20313
1.34706
1.48931
1.62971
1.7844
1.97791
2.24158
2.55507
2.73026
2.31116
0.462448
0.100301
0.132487
0.173598
0.20849
0.236224
0.259147
0.279233
0.297911
0.316837
0.338355
0.364868
0.398575
0.445101
0.510133
0.597924
0.709878
0.844339
0.99297
1.14576
1.2973
1.43945
1.57447
1.71371
1.86716
2.06215
2.33321
2.65643
2.83221
2.39218
0.471242
0.0999031
0.130907
0.17111
0.205895
0.233886
0.257256
0.277718
0.297441
0.318088
0.341943
0.373122
0.414993
0.47369
0.554967
0.661016
0.790674
0.937767
1.09351
1.24887
1.40141
1.54408
1.67472
1.80793
1.96143
2.15947
2.43767
2.76717
2.93873
2.47184
0.479156
0.0995761
0.12946
0.168771
0.203452
0.231627
0.255557
0.276872
0.297728
0.320687
0.348564
0.386019
0.438686
0.512978
0.613392
0.739346
0.886076
1.04478
1.20609
1.36225
1.51433
1.65714
1.78749
1.91527
2.0656
2.26851
2.55359
2.88537
3.04954
2.55249
0.487269
0.0992319
0.127973
0.166463
0.200968
0.229785
0.25436
0.277026
0.299527
0.325783
0.359465
0.405722
0.472597
0.565729
0.68749
0.833535
0.995675
1.16401
1.33044
1.48736
1.63767
1.77902
1.90951
2.03607
2.18139
2.38648
2.67872
3.01003
3.16342
2.63512
0.495705
0.0987259
0.12649
0.164368
0.199188
0.228398
0.253872
0.277913
0.303093
0.334056
0.375715
0.434819
0.519825
0.634704
0.778647
0.943051
1.11785
1.29376
1.46423
1.62224
1.77016
1.90752
2.03796
2.16458
2.30947
2.51365
2.81012
3.13866
3.27835
2.72124
0.503433
0.0985166
0.125567
0.162963
0.197875
0.227569
0.25414
0.279932
0.308633
0.34586
0.398588
0.474713
0.581867
0.720916
0.886465
1.06625
1.25074
1.43256
1.60602
1.76498
1.91046
2.04342
2.1702
2.29936
2.44829
2.65004
2.94603
3.26917
3.39119
2.80566
0.510696
0.0984014
0.124781
0.161839
0.19697
0.227292
0.255194
0.283351
0.316669
0.362277
0.429569
0.526431
0.658984
0.822774
1.00757
1.19989
1.39235
1.57871
1.75399
1.91347
2.05694
2.18566
2.30872
2.43947
2.59289
2.79474
3.08585
3.39854
3.4995
2.88471
0.516412
0.0983765
0.124087
0.160957
0.196375
0.227559
0.257236
0.288512
0.328181
0.384729
0.470312
0.59206
0.750625
0.937652
1.13835
1.34141
1.5411
1.73089
1.90696
2.0659
2.20754
2.33267
2.45243
2.5838
2.74199
2.94466
3.22619
3.52256
3.60202
2.95588
0.522248
0.0984848
0.12354
0.160264
0.195913
0.228498
0.26039
0.296087
0.34413
0.415424
0.523136
0.672693
0.857612
1.06578
1.27991
1.49197
1.69632
1.88793
2.06383
2.22155
2.36063
2.4832
2.6014
2.73222
2.89426
3.09683
3.36369
3.63815
3.6966
3.01677
0.528352
0.0987405
0.123087
0.159824
0.196158
0.230214
0.265013
0.30675
0.36614
0.456283
0.590295
0.76836
0.978117
1.20348
1.43006
1.64884
1.85638
2.04907
2.22387
2.37934
2.51645
2.63752
2.75525
2.88514
3.04792
3.24782
3.49488
3.74207
3.7747
3.06324
0.532397
0.0989739
0.122582
0.159665
0.197166
0.233075
0.271667
0.321369
0.395699
0.509133
0.672737
0.877806
1.10885
1.34852
1.58553
1.81041
2.0206
2.2138
2.38719
2.53969
2.67572
2.797
2.91394
3.04238
3.2027
3.39437
3.61398
3.828
3.82753
3.09462
0.53489
0.0990969
0.12197
0.159639
0.198782
0.237279
0.280929
0.341201
0.434294
0.57537
0.769217
0.999705
1.24757
1.49966
1.74516
1.9762
2.18933
2.38322
2.55499
2.70575
2.84017
2.961
3.0771
3.20342
3.35708
3.53299
3.7155
3.88604
3.84643
3.1024
0.53829
0.0992192
0.12143
0.159634
0.200852
0.24274
0.293322
0.367125
0.483058
0.654097
0.877644
1.13032
1.39233
1.65556
1.90888
2.14631
2.36385
2.55959
2.73124
2.88071
3.01178
3.13088
3.24575
3.36782
3.50933
3.65953
3.79536
3.90402
3.82047
3.08793
0.539627
0.0993933
0.121325
0.160397
0.203458
0.249621
0.309093
0.399876
0.542343
0.743549
0.993824
1.26565
1.54174
1.81456
2.07604
2.32016
2.54526
2.74465
2.91818
3.06618
3.19321
3.30829
3.41946
3.53354
3.65683
3.76905
3.84062
3.86097
3.72396
3.02041
0.542353
0.0996286
0.121634
0.162191
0.20765
0.258969
0.329378
0.440892
0.612816
0.843733
1.11619
1.4046
1.69512
1.97665
2.24617
2.49884
2.73217
2.93747
3.11497
3.26308
3.38637
3.49325
3.59639
3.6983
3.79415
3.85672
3.84167
3.73013
3.49326
2.84182
0.538814
0.0999395
0.122249
0.16468
0.213429
0.271575
0.356054
0.492977
0.696134
0.9556
1.24707
1.5489
1.85201
2.14372
2.42231
2.68427
2.92596
3.13675
3.31867
3.46869
3.58866
3.68621
3.77646
3.85704
3.91489
3.90917
3.76884
3.43789
2.94528
2.25708
0.525847
0.418307
0.425271
0.434917
0.447871
0.463042
0.479417
0.496544
0.514034
0.531419
0.548554
0.565321
0.581657
0.597449
0.612601
0.627111
0.640929
0.653999
0.666271
0.677787
0.688698
0.699126
0.709116
0.718661
0.727738
0.73636
0.744568
0.752395
0.76009
0.767565
0.774763
0.781645
0.788169
0.794295
0.799988
0.80516
0.809926
0.814635
0.818832
0.82264
0.825842
0.828445
0.830398
0.831607
0.831984
0.831518
0.830382
0.828349
0.825326
0.821215
0.816007
0.809824
0.802591
0.794234
0.78472
0.774069
0.762387
0.749716
0.736073
0.721474
0.705946
0.689562
0.672419
0.65476
0.637126
0.619248
0.601131
0.582861
0.56446
0.545962
0.527406
0.508837
0.490308
0.471863
0.453549
0.435416
0.417515
0.399924
0.38269
0.365834
0.349335
0.3332
0.317501
0.302252
0.287414
0.272937
0.258766
0.244878
0.231286
0.217991
0.205049
0.192494
0.180422
0.168921
0.158098
0.148094
0.139026
0.130973
0.124
0.118141
0.113349
0.109524
0.106582
0.10439
0.102803
0.101685
0.10095
0.100508
0.100264
0.100219
0.100338
0.100533
0.10076
0.101005
0.101247
0.101447
0.101622
0.101667
0.101579
0.101408
0.101192
0.10103
0.100774
0.100665
0.100561
0.100398
4.78781
4.80396
4.84018
4.91297
5.00231
5.10442
5.21275
5.32541
5.43705
5.54796
5.65903
5.77015
5.88115
5.99096
6.09887
6.20391
6.30485
6.39987
6.48876
6.57397
6.65827
6.74288
6.8266
6.90838
6.98809
7.06584
7.14233
7.21434
7.28175
7.3445
7.40237
7.45515
7.50276
7.54515
7.58232
7.61429
7.64111
7.66275
7.67959
7.69187
7.69944
7.70214
7.69975
7.69195
7.67779
7.6557
7.62666
7.59
7.54508
7.49127
7.42933
7.3593
7.28082
7.19372
7.09815
6.99482
6.88412
6.76598
6.64025
6.50671
6.36505
6.21383
6.04934
5.86452
5.66676
5.46352
5.26016
5.05535
4.85032
4.64591
4.44216
4.23993
4.04008
3.8436
3.65232
3.46811
3.29248
3.12577
2.96815
2.82074
2.68373
2.5561
2.43598
2.32189
2.2123
2.10588
2.00106
1.89644
1.79065
1.68287
1.57261
1.46015
1.34621
1.23187
1.11854
1.00768
0.900936
0.799526
0.705118
0.618791
0.541071
0.472146
0.411996
0.360168
0.316107
0.279131
0.248269
0.223271
0.203022
0.186921
0.174261
0.164006
0.155859
0.149506
0.144937
0.141933
0.139252
0.136316
0.133322
0.130617
0.128299
0.126402
0.125078
0.124089
0.12314
8.15563
8.21288
8.31664
8.46497
8.64226
8.83661
9.03824
9.24151
9.44113
9.63507
9.82279
10.0039
10.1782
10.3451
10.5042
10.6551
10.7975
10.9312
11.0575
11.1784
11.2959
11.4094
11.5188
11.6241
11.7254
11.8214
11.9112
11.9936
12.0686
12.136
12.1958
12.2477
12.2919
12.3284
12.3574
12.3791
12.3937
12.4012
12.4018
12.3955
12.3823
12.3618
12.3337
12.2976
12.2526
12.1976
12.1327
12.0574
11.971
11.8735
11.7636
11.6429
11.5108
11.3673
11.2124
11.0468
10.8712
10.6856
10.4901
10.2847
10.0696
9.84442
9.6087
9.36198
9.10487
8.83711
8.55745
8.26964
7.97721
7.6825
7.38674
7.09194
6.79874
6.50831
6.22189
5.94092
5.6666
5.40002
5.14187
4.89295
4.65391
4.4247
4.20455
3.99264
3.788
3.58994
3.39777
3.21056
3.02785
2.84931
2.67483
2.50449
2.33855
2.17739
2.02129
1.87052
1.72508
1.58482
1.45016
1.3209
1.19737
1.07981
0.968958
0.86544
0.769655
0.682015
0.602742
0.532948
0.471866
0.419536
0.375061
0.336761
0.304654
0.278287
0.257386
0.241294
0.227835
0.215419
0.204123
0.194494
0.186328
0.180064
0.175294
0.171518
0.167954
10.5529
10.6408
10.7904
10.9913
11.2244
11.4749
11.7317
11.987
12.2355
12.4744
12.7019
12.9175
13.1207
13.3117
13.4908
13.6585
13.8152
13.9621
14.1007
14.2326
14.3589
14.4779
14.5901
14.6957
14.7948
14.8857
14.9665
15.0376
15.0992
15.1514
15.1946
15.2289
15.2545
15.2716
15.2805
15.2815
15.275
15.261
15.24
15.2119
15.1768
15.1343
15.0841
15.0257
14.9583
14.8815
14.7948
14.6978
14.5901
14.4712
14.3406
14.1987
14.0453
13.8805
13.7045
13.5165
13.3196
13.1132
12.897
12.6711
12.4356
12.1905
11.9356
11.6706
11.3954
11.1102
10.8149
10.5094
10.1936
9.86792
9.5358
9.20142
8.8662
8.53077
8.19751
7.86754
7.54198
7.22202
6.90869
6.60279
6.30494
6.01542
5.73439
5.46177
5.19746
4.94135
4.69334
4.45286
4.21977
3.99389
3.77482
3.56277
3.35763
3.15948
2.96802
2.78302
2.60432
2.43161
2.2649
2.10365
1.94774
1.79692
1.65145
1.51173
1.37779
1.25014
1.12885
1.01547
0.909757
0.813105
0.724898
0.64442
0.573174
0.512295
0.461657
0.418896
0.381254
0.346896
0.316397
0.290632
0.269635
0.253286
0.240448
0.229788
0.220753
12.5764
12.6819
12.8546
13.0796
13.3357
13.6066
13.8806