/*--------------------------------*- C++ -*----------------------------------*\
| =========                 |                                                 |
| \\      /  F ield         | OpenFOAM: The Open Source CFD Toolbox           |
|  \\    /   O peration     | Version:  2112                                  |
|   \\  /    A nd           | Website:  www.openfoam.com                      |
|    \\/     M anipulation  |                                                 |
\*---------------------------------------------------------------------------*/
FoamFile
{
    version     2.0;
    format      ascii;
    arch        "LSB;label=32;scalar=64";
    class       volScalarField;
    location    "0.00369";
    object      alphat;
}
// * * * * * * * * * * * * * * * * * * * * * * * * * * * * * * * * * * * * * //

dimensions      [1 -1 -1 0 0 0 0];

internalField   nonuniform List<scalar> 
13875
(
0.119859
0.0816041
0.078462
0.0782764
0.0782683
0.0783698
0.0783872
0.0783611
0.0782982
0.0782717
0.0782793
0.0782904
0.0783898
0.078432
0.0784
0.0782926
0.0782301
0.0782814
0.0783435
0.0783744
0.0782865
0.0782594
0.0784853
0.081488
0.120935
0.103938
0.057679
0.057094
0.0571581
0.0566646
0.0565673
0.0565663
0.0566609
0.0570443
0.0571082
0.0571022
0.0570675
0.0566667
0.0566345
0.0566746
0.0570769
0.0570507
0.0570143
0.0566741
0.0565824
0.0566339
0.057134
0.0570737
0.0573884
0.104501
0.110621
0.0553288
0.0558867
0.0547073
0.0544574
0.0543135
0.054249
0.0542599
0.0542328
0.0541843
0.0542527
0.0542397
0.0542773
0.0543066
0.0542592
0.054337
0.0540303
0.0542936
0.0543143
0.054374
0.0544478
0.0545714
0.0557807
0.055072
0.111105
0.115889
0.0546468
0.0553903
0.054288
0.0539038
0.0537751
0.0537119
0.0537117
0.0535366
0.0534682
0.0535329
0.0535662
0.0537355
0.0537691
0.0537168
0.0535753
0.0533695
0.0535603
0.0537699
0.0538401
0.0539139
0.0541715
0.055196
0.0542784
0.115817
0.121037
0.0546379
0.0551301
0.0537259
0.0535627
0.0533635
0.0532532
0.0532331
0.0530589
0.0529904
0.0530429
0.0530829
0.0532569
0.0532916
0.0532401
0.0530874
0.0528902
0.0530869
0.0533077
0.0534044
0.0535379
0.0535825
0.0550135
0.0543177
0.121457
0.124418
0.0547468
0.0551936
0.0535748
0.0531698
0.0529601
0.0528588
0.0528151
0.0526219
0.0525893
0.052613
0.0526485
0.0528496
0.0528845
0.0528275
0.0526449
0.0524802
0.0526353
0.0528861
0.0530208
0.053167
0.0534743
0.0548856
0.0543924
0.124157
0.128764
0.0564793
0.0557919
0.0534328
0.053167
0.0528048
0.052603
0.0525052
0.0522921
0.0522861
0.0522633
0.0523045
0.052525
0.0525651
0.0524992
0.0522831
0.0521646
0.0523236
0.0526284
0.052857
0.0531475
0.0533492
0.0556359
0.0563544
0.129044
0.135739
0.0612065
0.0578508
0.0543984
0.0533293
0.0527776
0.0524747
0.0523196
0.0520872
0.0520782
0.0520361
0.0520859
0.0523327
0.052387
0.0523046
0.0520355
0.0519818
0.0521168
0.0524898
0.0528273
0.0533165
0.0542806
0.0575328
0.0610432
0.135635
0.151427
0.069292
0.0615988
0.0559735
0.054438
0.0533687
0.0527499
0.0524296
0.0521174
0.0520938
0.0520329
0.0520853
0.0523725
0.052453
0.0523461
0.0520145
0.0520439
0.0522167
0.0527186
0.0533627
0.0543495
0.0557424
0.061033
0.0683924
0.154202
0.239472
0.0874739
0.0665707
0.0590997
0.0557099
0.0542372
0.0533945
0.0529118
0.0525957
0.0525461
0.0524765
0.0525204
0.05285
0.0529655
0.052838
0.052477
0.0525475
0.0527424
0.0532998
0.054207
0.0557168
0.0588386
0.0661661
0.0868464
0.241375
0.36576
0.118817
0.0764952
0.0629526
0.0587188
0.0561999
0.0549423
0.0542483
0.0539144
0.0538198
0.0537333
0.0537517
0.0540985
0.0542661
0.054161
0.0538325
0.0538843
0.05411
0.0547434
0.0559996
0.0584528
0.0626254
0.0751348
0.112927
0.365472
0.659412
0.19474
0.105217
0.0765717
0.0647788
0.0603195
0.0584177
0.057437
0.0570197
0.0568336
0.0567192
0.0567191
0.0570418
0.0572749
0.0572293
0.0570332
0.0570786
0.0573835
0.058237
0.0598789
0.0646858
0.0755619
0.103066
0.185794
0.645488
0.58392
0.424563
0.187716
0.097379
0.0826717
0.0716734
0.0671082
0.0654132
0.064594
0.0642074
0.0640483
0.064042
0.0643068
0.0645875
0.0646321
0.0646718
0.0649286
0.0656377
0.0671994
0.0716376
0.0825243
0.0946666
0.177676
0.421698
0.581456
0.500186
0.400844
0.363968
0.379138
0.138318
0.0973501
0.0910086
0.0879409
0.0866083
0.0858737
0.0856569
0.0856765
0.0859372
0.0862171
0.0864407
0.0868103
0.0876558
0.0892573
0.0926057
0.101514
0.153975
0.378566
0.357023
0.401184
0.505963
0.412042
0.357212
0.349819
0.385306
0.321829
0.221788
0.186598
0.153065
0.136261
0.133111
0.130643
0.130854
0.130214
0.131024
0.131642
0.133879
0.137183
0.152848
0.190257
0.229125
0.31987
0.382076
0.345232
0.368443
0.431105
0.354833
0.326514
0.32724
0.39371
0.487957
0.566407
0.544465
0.503839
0.535795
0.549439
0.560388
0.556481
0.561489
0.56303
0.562535
0.555387
0.534063
0.501388
0.536939
0.573272
0.492148
0.400281
0.331677
0.333515
0.3671
0.278118
0.290815
0.354546
0.445579
0.530437
0.608142
0.52702
0.472936
0.465503
0.46307
0.466456
0.464449
0.466159
0.467973
0.469713
0.466555
0.466585
0.473605
0.512693
0.605527
0.54399
0.449316
0.354196
0.294114
0.293086
0.21717
0.286183
0.374271
0.41846
0.463719
0.504139
0.438606
0.398421
0.393535
0.390479
0.392738
0.390182
0.392347
0.393569
0.395176
0.391882
0.393944
0.400478
0.432317
0.497851
0.472764
0.435491
0.383011
0.268269
0.19737
0.106082
0.207131
0.353507
0.364916
0.371134
0.398136
0.379305
0.358666
0.355993
0.353047
0.351526
0.349537
0.351096
0.35214
0.353181
0.352885
0.355057
0.355964
0.371555
0.395804
0.377202
0.377224
0.364553
0.210925
0.104851
0.0458158
0.150833
0.274869
0.28961
0.290851
0.319985
0.338781
0.335124
0.330225
0.322629
0.317081
0.312872
0.313749
0.315478
0.319067
0.323114
0.329875
0.333083
0.334724
0.32013
0.296819
0.29878
0.28305
0.152324
0.0448554
0.0462401
0.118686
0.18549
0.211465
0.227898
0.264489
0.297394
0.303699
0.300278
0.290846
0.282479
0.277381
0.277301
0.280215
0.285124
0.292502
0.30107
0.303244
0.29485
0.263801
0.230221
0.21522
0.185846
0.113222
0.0433245
0.0933523
0.128017
0.134918
0.166097
0.184861
0.226558
0.259288
0.268955
0.266984
0.258094
0.24933
0.242865
0.242411
0.245328
0.251665
0.259716
0.267807
0.268303
0.257112
0.225902
0.185411
0.167799
0.133487
0.127592
0.0952726
0.151501
0.139891
0.122011
0.136042
0.155992
0.196755
0.225479
0.235731
0.235656
0.227149
0.217926
0.211985
0.210724
0.213733
0.219343
0.227704
0.235045
0.233747
0.222263
0.196874
0.155199
0.136466
0.122779
0.140701
0.153853
0.178358
0.14689
0.118592
0.121219
0.137353
0.170042
0.194393
0.205102
0.205104
0.197565
0.189623
0.183597
0.182847
0.185192
0.190969
0.197946
0.204037
0.202362
0.189906
0.168679
0.138058
0.121929
0.119214
0.148562
0.176888
0.194945
0.154626
0.116918
0.113099
0.124693
0.147971
0.168325
0.178086
0.17874
0.171977
0.164526
0.159877
0.158729
0.161312
0.165911
0.172533
0.178132
0.175936
0.164365
0.145798
0.124572
0.113774
0.117885
0.155668
0.190639
0.208495
0.164322
0.118082
0.109325
0.114775
0.130845
0.147024
0.154889
0.155049
0.149826
0.143744
0.138693
0.138147
0.139839
0.144517
0.149958
0.153777
0.151857
0.142846
0.12829
0.114959
0.1098
0.118899
0.165829
0.209623
0.227212
0.179507
0.119427
0.10829
0.108106
0.11772
0.129627
0.134962
0.135287
0.130762
0.125141
0.121519
0.120535
0.122553
0.125911
0.131063
0.13444
0.132656
0.126115
0.114842
0.106979
0.108473
0.120582
0.182853
0.224149
0.246123
0.198129
0.120834
0.106409
0.102871
0.107403
0.114706
0.117865
0.117549
0.114285
0.110047
0.106239
0.105794
0.10704
0.110681
0.114716
0.117148
0.116154
0.112069
0.105279
0.10221
0.106413
0.122028
0.199889
0.245262
0.276089
0.208017
0.123316
0.104536
0.0995257
0.0999499
0.103519
0.10454
0.104109
0.100941
0.096686
0.0940997
0.0931948
0.0947031
0.0970817
0.100772
0.103103
0.102568
0.100692
0.0975335
0.0981313
0.104173
0.123265
0.20796
0.279591
0.324124
0.214054
0.123809
0.101781
0.0954239
0.0940578
0.0935366
0.0926843
0.0913584
0.0888127
0.085882
0.083036
0.0826346
0.0835182
0.0863007
0.0890991
0.0909437
0.0911936
0.0913256
0.0919633
0.0942576
0.101194
0.12574
0.217363
0.315036
0.344461
0.222177
0.128155
0.0994288
0.0918127
0.0882186
0.0856334
0.0834539
0.0819029
0.0794225
0.0761834
0.0743536
0.0735563
0.0748353
0.0765125
0.079362
0.0815616
0.0826178
0.0841471
0.0865182
0.0905002
0.0992621
0.127967
0.224491
0.348612
0.35293
0.228177
0.131752
0.0988287
0.0881662
0.0834337
0.0789599
0.0758498
0.0734672
0.0708484
0.068602
0.0663233
0.0659633
0.066737
0.0688208
0.0708812
0.0728972
0.0746185
0.0774212
0.0816288
0.086503
0.0981576
0.131138
0.228536
0.359269
0.364158
0.229364
0.138519
0.0998063
0.0848669
0.078247
0.073339
0.069373
0.0669177
0.0643967
0.0615789
0.0601217
0.059405
0.0605252
0.0617875
0.0642786
0.0667004
0.0687319
0.0719932
0.0766797
0.0834189
0.0987681
0.13705
0.232981
0.366814
0.370027
0.231534
0.149726
0.100485
0.0822746
0.0739946
0.0679373
0.0637376
0.060883
0.0581117
0.0561547
0.0542576
0.0538863
0.0545793
0.0563683
0.0581874
0.0606086
0.0630106
0.0671693
0.0727733
0.0806888
0.0994931
0.14666
0.23265
0.374592
0.369549
0.233172
0.156537
0.104813
0.0811586
0.0702174
0.063464
0.0591995
0.0562893
0.0537876
0.0511327
0.0498429
0.0491336
0.0501136
0.0512655
0.0536482
0.0561883
0.0586279
0.0624114
0.0692103
0.0796382
0.102997
0.160102
0.233818
0.375121
0.373003
0.231356
0.156272
0.107245
0.0810663
0.0673714
0.0593199
0.054808
0.0519243
0.049118
0.0471836
0.0455341
0.0451228
0.0457411
0.0474127
0.0492128
0.0517194
0.0544074
0.0587081
0.066334
0.0799249
0.107605
0.161021
0.233612
0.368848
0.372089
0.228337
0.155826
0.114771
0.0819783
0.0652393
0.0560032
0.0512961
0.0483373
0.0460369
0.043532
0.042343
0.0416453
0.0425419
0.0437101
0.0460333
0.0484296
0.0510374
0.0553332
0.0646733
0.0807179
0.115221
0.159477
0.2292
0.368913
0.369538
0.223678
0.154773
0.124747
0.0845262
0.0648104
0.0535728
0.048129
0.0451385
0.0424114
0.0405991
0.039066
0.0386674
0.0392862
0.0408329
0.0425093
0.0449189
0.0478968
0.0530268
0.063834
0.0833537
0.126726
0.157076
0.222773
0.368429
0.370287
0.217718
0.150245
0.125783
0.0880603
0.0644226
0.0519298
0.0458638
0.0424335
0.0401676
0.0378162
0.0367088
0.0360794
0.0369625
0.0380231
0.0401861
0.0425609
0.0456097
0.051705
0.0641762
0.0882433
0.128236
0.152108
0.218613
0.365943
0.369387
0.21491
0.143025
0.125011
0.0947109
0.0656615
0.0515468
0.044
0.0401352
0.0372495
0.0355821
0.0341886
0.0338297
0.0344244
0.0358352
0.0374243
0.0399953
0.0438701
0.0512824
0.065194
0.0959496
0.127687
0.143052
0.213862
0.366948
0.364065
0.212434
0.136209
0.124263
0.105995
0.0679557
0.0513484
0.0432599
0.0383791
0.0358266
0.0334915
0.0324791
0.0318621
0.0326635
0.0336564
0.0358401
0.0385376
0.0430849
0.0510409
0.0682383
0.108456
0.125818
0.1355
0.212589
0.36377
0.36303
0.210597
0.130368
0.120084
0.105737
0.0723489
0.0521266
0.0429873
0.0372437
0.0336027
0.0318084
0.030501
0.0301508
0.0306672
0.0320415
0.0337336
0.0371358
0.0429173
0.052478
0.0742908
0.10847
0.122095
0.131304
0.211792
0.358757
0.355377
0.20968
0.126349
0.114536
0.105311
0.0801472
0.0535804
0.0431332
0.0367295
0.0331016
0.0303107
0.0292496
0.0286305
0.029406
0.0304318
0.0331195
0.0368385
0.043015
0.0546592
0.0834983
0.107172
0.115669
0.126705
0.209254
0.354555
0.348508
0.209719
0.124883
0.108914
0.102751
0.0872536
0.0578681
0.0438568
0.0367823
0.0315641
0.0292363
0.0277293
0.0273276
0.0278747
0.0294067
0.0317053
0.0366639
0.0438103
0.0601224
0.0881618
0.10321
0.109693
0.124546
0.208894
0.34941
0.342767
0.20596
0.122321
0.104915
0.0988864
0.0872971
0.0640935
0.0455162
0.0366827
0.0321693
0.0286097
0.0270381
0.0262648
0.0271643
0.0286946
0.0322777
0.0369758
0.0462896
0.0686565
0.0878052
0.0979121
0.105437
0.123678
0.2066
0.339853
0.337604
0.205273
0.122525
0.100955
0.0932359
0.0860426
0.0738888
0.0495896
0.0375425
0.0315522
0.0285744
0.0262705
0.0255913
0.0264002
0.0286237
0.031653
0.0379066
0.0508926
0.0735448
0.0860666
0.0923235
0.101582
0.123146
0.203948
0.336887
0.328168
0.201649
0.122308
0.0995344
0.0897862
0.0838727
0.0742553
0.0564155
0.0395316
0.0325675
0.0285577
0.0264547
0.025272
0.0265867
0.028548
0.0326242
0.0404347
0.0579682
0.0732923
0.082574
0.0887543
0.0995225
0.122379
0.200741
0.327568
0.322221
0.19864
0.121875
0.0975822
0.0862348
0.0798779
0.073419
0.0641397
0.0439588
0.032823
0.0286795
0.0261981
0.0252632
0.0263386
0.0288042
0.0331311
0.0458523
0.0643552
0.0726973
0.0788943
0.0856646
0.0983688
0.122806
0.198385
0.319747
0.30187
0.191093
0.119971
0.0971682
0.0846053
0.0767129
0.071352
0.0644207
0.0504493
0.036118
0.0291715
0.0265995
0.0253572
0.0267291
0.0293452
0.0367329
0.0536274
0.0643871
0.0705503
0.0759892
0.0843502
0.0975473
0.120713
0.190296
0.297803
0.275379
0.181177
0.117888
0.0951701
0.0827008
0.074138
0.0683036
0.0635829
0.0564707
0.040071
0.0308125
0.0267167
0.0256907
0.0268242
0.0311694
0.0406409
0.0565294
0.0635671
0.0677917
0.0737093
0.0827711
0.0958831
0.117799
0.179985
0.272834
0.0853988
0.222714
0.291376
0.312083
0.318402
0.323599
0.32733
0.33283
0.337672
0.342727
0.347297
0.352886
0.359304
0.36606
0.372743
0.378228
0.383937
0.392409
0.403742
0.416301
0.42917
0.442429
0.453033
0.467448
0.488724
0.533244
0.677754
1.03879
0.997732
0.294333
0.0764547
0.231403
0.299588
0.31933
0.324754
0.329107
0.333195
0.33946
0.345399
0.351579
0.357271
0.362921
0.369233
0.375638
0.381041
0.385754
0.390802
0.396228
0.404054
0.416739
0.429517
0.441657
0.457255
0.477117
0.509959
0.618702
1.00857
1.1439
1.01528
0.284497
0.0789454
0.243239
0.306428
0.323134
0.327526
0.332149
0.336989
0.344217
0.351181
0.358256
0.365022
0.371392
0.377428
0.382847
0.387302
0.390957
0.393999
0.397089
0.403155
0.413117
0.428034
0.441126
0.460813
0.48517
0.552
0.826492
1.17014
1.17752
1.01563
0.281794
0.0814845
0.250242
0.309045
0.324483
0.329462
0.335051
0.341039
0.349127
0.356985
0.365052
0.372468
0.379307
0.38505
0.389469
0.393058
0.395592
0.397595
0.399649
0.404754
0.413928
0.428575
0.444447
0.466019
0.506299
0.662335
1.1169
1.23243
1.19406
1.00817
0.27889
0.0822544
0.252333
0.310878
0.326308
0.332267
0.338803
0.345803
0.354668
0.363281
0.372206
0.380403
0.387597
0.393371
0.397009
0.399427
0.401085
0.402537
0.404049
0.408509
0.417357
0.430656
0.449506
0.476383
0.566734
0.962753
1.22607
1.25409
1.19129
0.980109
0.281854
0.0827858
0.25438
0.312793
0.328782
0.335894
0.343215
0.351191
0.36064
0.369976
0.379852
0.388943
0.396172
0.401811
0.404885
0.406999
0.407791
0.408521
0.409482
0.413602
0.422308
0.435587
0.456857
0.508686
0.744119
1.17327
1.26118
1.2588
1.16665
0.941888
0.284471
0.0834361
0.256843
0.315096
0.332015
0.340372
0.348709
0.357645
0.367634
0.377469
0.388058
0.397322
0.404332
0.409653
0.41287
0.413937
0.414745
0.41571
0.416872
0.42012
0.427831
0.441439
0.473854
0.596496
1.06546
1.24465
1.27215
1.23878
1.13095
0.899425
0.286474
0.0842604
0.259895
0.318105
0.336322
0.345969
0.355605
0.365327
0.375387
0.385378
0.395562
0.404575
0.411442
0.416749
0.419866
0.420515
0.421232
0.4225
0.424322
0.426857
0.433095
0.45068
0.517837
0.84817
1.19476
1.2598
1.26131
1.20641
1.09177
0.859645
0.28729
0.0850468
0.263404
0.322018
0.341685
0.352544
0.362908
0.372709
0.382351
0.391763
0.400775
0.409279
0.416224
0.42128
0.425033
0.426289
0.426598
0.427867
0.429335
0.431028
0.437908
0.471037
0.636966
1.09475
1.22649
1.25226
1.23278
1.16913
1.05602
0.8208
0.28617
0.0857224
0.267712
0.326981
0.347686
0.359143
0.368988
0.378213
0.386923
0.395222
0.403214
0.41099
0.417736
0.423073
0.427279
0.429448
0.429176
0.429685
0.430711
0.432438
0.445617
0.521773
0.908269
1.17104
1.22205
1.22458
1.19193
1.13415
1.01815
0.781141
0.284028
0.0864753
0.273351
0.333071
0.353627
0.3643
0.372894
0.380687
0.387984
0.394562
0.401395
0.40877
0.415255
0.420776
0.425256
0.427418
0.426981
0.427076
0.427534
0.431973
0.46484
0.657181
1.07017
1.17082
1.19239
1.18669
1.14931
1.09526
0.976753
0.739612
0.280644
0.0874663
0.280582
0.339892
0.358737
0.367185
0.373378
0.378735
0.383871
0.38841
0.394311
0.400767
0.406789
0.412291
0.416968
0.419263
0.419118
0.418863
0.420456
0.433281
0.510639
0.901981
1.10263
1.14396
1.14965
1.13748
1.10665
1.05265
0.931262
0.696407
0.275567
0.0890635
0.289058
0.346281
0.361691
0.36635
0.368703
0.370601
0.372944
0.376188
0.379935
0.385421
0.391058
0.396557
0.401523
0.404488
0.404722
0.404847
0.410792
0.441913
0.637956
0.999736
1.07655
1.09617
1.09956
1.08423
1.05802
1.00452
0.881549
0.653517
0.269588
0.0911688
0.29808
0.350754
0.360136
0.359515
0.357404
0.354929
0.354793
0.355606
0.357541
0.362043
0.367013
0.372212
0.377912
0.382142
0.383953
0.386923
0.399959
0.471962
0.830647
0.998169
1.02908
1.03827
1.04117
1.02757
1.00387
0.951126
0.829625
0.611717
0.263115
0.0938475
0.306242
0.35091
0.351225
0.343928
0.337794
0.331506
0.327709
0.326153
0.327376
0.330374
0.335181
0.34096
0.347811
0.353515
0.357282
0.364801
0.394171
0.568803
0.883643
0.948759
0.965136
0.975291
0.976081
0.967532
0.946734
0.895251
0.777049
0.571483
0.256297
0.0967773
0.311167
0.343531
0.33289
0.318398
0.30777
0.298108
0.292167
0.289494
0.290378
0.292749
0.297542
0.303937
0.311877
0.318579
0.325077
0.340922
0.404355
0.703098
0.868652
0.886387
0.896317
0.907225
0.90774
0.905487
0.887683
0.838204
0.725188
0.533681
0.249319
0.100074
0.309538
0.325967
0.304755
0.283822
0.269515
0.257711
0.251199
0.248298
0.24903
0.251222
0.256242
0.262926
0.270812
0.279253
0.291954
0.321587
0.476961
0.769359
0.825387
0.821311
0.827388
0.835044
0.840838
0.841625
0.827733
0.781058
0.675009
0.498421
0.242321
0.103391
0.299123
0.298242
0.268054
0.242954
0.22697
0.214619
0.208586
0.206286
0.20717
0.208599
0.213825
0.221372
0.231064
0.242447
0.259891
0.322518
0.60921
0.745538
0.756949
0.750758
0.756155
0.764048
0.77518
0.779659
0.769021
0.725464
0.62696
0.465575
0.235273
0.106105
0.278784
0.261193
0.225103
0.199366
0.184375
0.173282
0.167669
0.165949
0.168462
0.171463
0.177664
0.18599
0.196321
0.209152
0.241474
0.410487
0.620734
0.683632
0.682119
0.680849
0.684905
0.699453
0.712357
0.719844
0.712112
0.671794
0.58125
0.434789
0.227999
0.109904
0.252042
0.221718
0.184296
0.161683
0.148828
0.138823
0.134905
0.135388
0.139164
0.143142
0.150285
0.159408
0.170813
0.191235
0.286823
0.478702
0.568834
0.610138
0.612157
0.610661
0.621787
0.63791
0.653749
0.663237
0.657526
0.620146
0.537991
0.406219
0.220664
0.11062
0.221668
0.179937
0.145999
0.129819
0.120625
0.115131
0.113529
0.116914
0.122399
0.129001
0.138603
0.151053
0.170221
0.231441
0.362239
0.445248
0.501964
0.541057
0.54524
0.546257
0.562938
0.581334
0.599119
0.610325
0.606432
0.57203
0.497892
0.379879
0.213428
0.116899
0.198032
0.150013
0.122505
0.113263
0.106667
0.10313
0.106034
0.11308
0.122881
0.138993
0.165908
0.193389
0.227964
0.289131
0.346744
0.393586
0.442897
0.481034
0.478904
0.492428
0.508601
0.529855
0.549353
0.561973
0.559596
0.528299
0.46137
0.355726
0.206212
0.115035
0.168891
0.117196
0.106641
0.10328
0.101765
0.101526
0.11265
0.133842
0.16802
0.20409
0.222379
0.233492
0.251569
0.289528
0.315325
0.344175
0.387591
0.423953
0.423652
0.441758
0.461423
0.48422
0.504573
0.517993
0.516282
0.489085
0.428545
0.333826
0.199244
0.141194
0.156412
0.106444
0.100457
0.0991347
0.100672
0.110718
0.151636
0.205161
0.224987
0.233329
0.23455
0.240024
0.25146
0.26664
0.278552
0.302875
0.337315
0.372141
0.378006
0.39809
0.419929
0.443752
0.464641
0.478355
0.47672
0.453381
0.398842
0.314138
0.192658
0.106847
0.087066
0.0705167
0.0892488
0.0944497
0.104166
0.146957
0.212085
0.232341
0.235879
0.229299
0.220681
0.220687
0.22319
0.235623
0.243493
0.26562
0.293642
0.325293
0.336684
0.359299
0.383244
0.407647
0.428842
0.442677
0.441424
0.420975
0.372082
0.296395
0.186386
0.294314
0.997692
1.03762
0.676699
0.532818
0.48847
0.467296
0.452765
0.442171
0.428972
0.416169
0.403588
0.392368
0.383872
0.378353
0.372711
0.365996
0.359245
0.352922
0.347447
0.343167
0.338269
0.333567
0.327984
0.324234
0.318878
0.312475
0.291665
0.222868
0.0854223
0.284459
1.01613
1.14486
1.00794
0.618379
0.509801
0.476949
0.457097
0.441309
0.429276
0.416316
0.403726
0.396102
0.390857
0.386182
0.381501
0.375954
0.369517
0.363457
0.358126
0.352993
0.34668
0.340571
0.334295
0.330167
0.32585
0.320247
0.300294
0.231866
0.0765761
0.281909
1.01705
1.17944
1.17109
0.826529
0.552016
0.485111
0.460742
0.440951
0.427811
0.41301
0.403014
0.397202
0.3944
0.391295
0.388057
0.383693
0.378426
0.372695
0.366579
0.359795
0.352756
0.345535
0.338273
0.33344
0.32884
0.32445
0.307575
0.244037
0.0791242
0.279126
1.01018
1.19631
1.23421
1.11784
0.662732
0.50637
0.465984
0.444385
0.428422
0.413925
0.404786
0.39994
0.398075
0.396309
0.394043
0.390797
0.386778
0.381373
0.374592
0.366867
0.358575
0.350598
0.34246
0.336467
0.330929
0.325962
0.310489
0.251394
0.0817858
0.282176
0.982556
1.19365
1.25619
1.22755
0.963962
0.566987
0.476393
0.4495
0.430686
0.417508
0.408706
0.404485
0.403092
0.401944
0.40085
0.398855
0.395711
0.390266
0.382876
0.374278
0.365027
0.356313
0.347417
0.340396
0.333866
0.327911
0.312363
0.253517
0.0825412
0.284793
0.944267
1.1689
1.26093
1.26297
1.17459
0.745177
0.508859
0.456946
0.435716
0.422534
0.413879
0.410098
0.409456
0.409068
0.408496
0.40705
0.404517
0.399035
0.391614
0.381986
0.371827
0.362394
0.352926
0.344994
0.337638
0.330446
0.314276
0.255514
0.0830895
0.286712
0.901322
1.13289
1.24069
1.27398
1.24608
1.06686
0.597095
0.474073
0.44164
0.428329
0.420739
0.417973
0.41692
0.416427
0.416016
0.415532
0.412622
0.407162
0.399935
0.390171
0.379482
0.369539
0.359471
0.350568
0.34224
0.333754
0.31657
0.257964
0.0838765
0.287443
0.860967
1.09316
1.20804
1.26283
1.26129
1.19604
0.849518
0.518287
0.451037
0.433585
0.427986
0.42594
0.42411
0.423262
0.423385
0.423045
0.419633
0.413996
0.406482
0.397383
0.387447
0.377517
0.367343
0.357576
0.347903
0.338109
0.319558
0.260927
0.0845763
0.286201
0.821571
1.0568
1.17018
1.23411
1.25365
1.2278
1.09622
0.638086
0.471714
0.438771
0.432616
0.431263
0.430218
0.429172
0.429304
0.428393
0.423981
0.41849
0.411123
0.402669
0.393876
0.384717
0.375109
0.365173
0.354573
0.343537
0.323502
0.264438
0.0854087
0.283941
0.78151
1.01849
1.13468
1.1929
1.22591
1.22349
1.17267
0.910129
0.522862
0.446952
0.434585
0.432891
0.432723
0.432974
0.433189
0.430457
0.425984
0.420032
0.412693
0.405003
0.397274
0.389265
0.380729
0.371436
0.361309
0.349612
0.328504
0.268805
0.0860972
0.280516
0.739761
0.97682
1.09549
1.15002
1.18809
1.19413
1.17268
1.0727
0.659441
0.466715
0.434336
0.430341
0.430391
0.431336
0.431372
0.428219
0.423541
0.417354
0.41029
0.403042
0.396572
0.390113
0.382827
0.375051
0.366448
0.355602
0.334604
0.274606
0.0868578
0.275421
0.696388
0.931262
1.05278
1.1073
1.1389
1.15199
1.14634
1.10578
0.906021
0.513277
0.436246
0.424023
0.42293
0.423586
0.423156
0.419623
0.414741
0.408572
0.402003
0.395633
0.390274
0.385548
0.380357
0.374943
0.368736
0.360463
0.341509
0.282062
0.0880037
0.26939
0.653442
0.881612
1.00473
1.05885
1.086
1.10274
1.09935
1.07993
1.00316
0.641677
0.445562
0.414771
0.409468
0.409254
0.408044
0.403778
0.398554
0.392374
0.386279
0.380872
0.377093
0.373786
0.371323
0.369621
0.367117
0.362799
0.347779
0.2906
0.0896548
0.262885
0.611599
0.829706
0.951406
1.00492
1.02986
1.04491
1.04259
1.03315
1.00274
0.835613
0.476383
0.404068
0.390468
0.387322
0.384276
0.379033
0.373266
0.367425
0.362275
0.35777
0.355351
0.354566
0.354723
0.357329
0.359413
0.360502
0.351833
0.29956
0.0918068
0.256056
0.571525
0.777154
0.895683
0.948076
0.970258
0.980146
0.980906
0.970682
0.955285
0.890934
0.574859
0.398158
0.367373
0.358689
0.354154
0.347796
0.340967
0.334774
0.329985
0.326337
0.324953
0.326307
0.329944
0.336536
0.343132
0.350882
0.351385
0.307505
0.0944522
0.249124
0.533763
0.725427
0.839123
0.889267
0.908225
0.912035
0.913415
0.903924
0.894367
0.87731
0.713596
0.408342
0.342549
0.325044
0.317353
0.310855
0.303088
0.296351
0.291691
0.288693
0.287426
0.290045
0.296239
0.306299
0.317173
0.332018
0.343393
0.312023
0.0972842
0.24222
0.498644
0.675446
0.782457
0.829704
0.844628
0.844783
0.840978
0.835353
0.828358
0.832874
0.774812
0.481882
0.322508
0.291567
0.27826
0.268933
0.261363
0.254271
0.249617
0.247022
0.245965
0.248782
0.255616
0.267941
0.282601
0.303533
0.325543
0.310035
0.10046
0.235264
0.466099
0.627892
0.727179
0.77116
0.782628
0.779371
0.769084
0.763124
0.757747
0.762798
0.748963
0.613299
0.323738
0.259838
0.241752
0.230128
0.220641
0.212368
0.207324
0.205786
0.204303
0.206149
0.212409
0.225244
0.241537
0.266619
0.297342
0.299179
0.103728
0.228096
0.435571
0.582471
0.67391
0.714561
0.722936
0.716167
0.703922
0.690204
0.687237
0.687042
0.685157
0.621466
0.413603
0.242129
0.208985
0.195698
0.185597
0.17673
0.171072
0.167855
0.165374
0.16677
0.171192
0.182909
0.197953
0.223856
0.260462
0.278538
0.106417
0.220814
0.406927
0.539309
0.622621
0.660117
0.666179
0.657258
0.642051
0.626039
0.615574
0.616448
0.611034
0.567565
0.477759
0.291194
0.192475
0.171465
0.159782
0.149762
0.143216
0.138962
0.134943
0.134063
0.137749
0.146817
0.160552
0.183213
0.220907
0.251619
0.110165
0.213646
0.380663
0.499174
0.57435
0.608847
0.612998
0.602178
0.584701
0.56736
0.549893
0.548472
0.541826
0.500362
0.442346
0.361514
0.237665
0.176761
0.154299
0.139916
0.129663
0.121943
0.116219
0.113224
0.114419
0.120259
0.129021
0.144816
0.178733
0.220965
0.110874
0.206496
0.356503
0.462519
0.53023
0.56168
0.564242
0.551967
0.532799
0.512245
0.495253
0.481665
0.481405
0.441064
0.390999
0.344562
0.288154
0.23288
0.204139
0.176715
0.147248
0.12536
0.112577
0.105218
0.102748
0.106892
0.113641
0.122531
0.148751
0.197774
0.117437
0.199495
0.334513
0.429542
0.490536
0.518472
0.520055
0.506708
0.486284
0.463842
0.444934
0.425421
0.423655
0.384962
0.341162
0.312838
0.287407
0.251079
0.237144
0.226991
0.213616
0.182248
0.142083
0.114305
0.101127
0.101223
0.102943
0.106468
0.116815
0.168053
0.115566
0.192832
0.314599
0.399675
0.454708
0.478361
0.479768
0.466072
0.445103
0.421437
0.400075
0.378256
0.372437
0.334703
0.300122
0.276697
0.264214
0.248351
0.241136
0.234937
0.236669
0.231067
0.215295
0.165942
0.114142
0.100316
0.0980821
0.0990894
0.106323
0.156053
0.142163
0.186549
0.296745
0.372781
0.422034
0.442554
0.443748
0.429844
0.408647
0.384435
0.360949
0.336402
0.32372
0.291044
0.262503
0.240833
0.232753
0.21961
0.218195
0.216253
0.228751
0.236273
0.235471
0.219709
0.160586
0.106881
0.0942889
0.0888132
0.0706501
0.086943
0.106826
0.056488
0.0566257
0.0567646
0.0569035
0.0570425
0.0571816
0.0573208
0.0574601
0.0575995
0.057739
0.0578786
0.0580183
0.0581581
0.058298
0.058438
0.0585781
0.0587184
0.0588692
0.0597949
0.0910355
0.280724
0.588259
0.794487
0.882898
0.944084
1.01902
1.12965
1.25119
1.37689
1.51453
1.60157
1.61489
1.59612
1.54227
1.51757
1.48531
1.45662
1.42997
1.39291
1.37731
1.36459
1.34905
1.32643
1.30256
1.28209
1.26359
1.24033
1.20742
1.16524
1.11519
1.05402
0.983572
0.906073
0.829801
0.757999
0.691638
0.63135
0.577979
0.531262
0.491399
0.456744
0.425851
0.397822
0.372095
0.348454
0.326922
0.307167
0.28932
0.273388
0.259069
0.246184
0.234482
0.223913
0.214336
0.205646
0.19764
0.190259
0.183526
0.177363
0.171521
0.166033
0.161027
0.156589
0.152747
0.149437
0.146552
0.144008
0.141817
0.13992
0.138248
0.136706
0.135216
0.133756
0.132327
0.130968
0.129731
0.128661
0.127785
0.127111
0.12662
0.126284
0.126091
0.126049
0.126185
0.126532
0.127087
0.127814
0.128728
0.12981
0.131019
0.132384
0.133988
0.135833
0.137731
0.13972
0.141915
0.144501
0.147685
0.151338
0.154992
0.159175
0.163865
0.169032
0.174633
0.180592
0.199931
0.200178
0.200397
0.20061
0.20082
0.20103
0.201239
0.201448
0.201656
0.201864
0.202072
0.202279
0.202486
0.202692
0.202898
0.203103
0.203309
0.203528
0.200814
0.0728885
0.186288
0.537357
0.790565
0.899527
1.03192
1.20641
1.37118
1.57043
1.81052
1.9017
1.90482
1.88231
1.86042
1.8404
1.80916
1.77205
1.73806
1.70702
1.69054
1.68413
1.68052
1.68134
1.68336
1.68393
1.68221
1.6824
1.68103
1.6743
1.65645
1.61502
1.5414
1.45028
1.34777
1.24251
1.13525
1.03368
0.937911
0.851052
0.775491
0.70902
0.650417
0.599738
0.555598
0.516829
0.482474
0.451684
0.423892
0.398967
0.376737
0.356863
0.339174
0.323362
0.309034
0.296024
0.284405
0.273828
0.263899
0.254679
0.246011
0.237706
0.229982
0.222804
0.216474
0.210923
0.205946
0.201495
0.197487
0.194047
0.191179
0.188691
0.18632
0.184017
0.181831
0.17975
0.177767
0.175962
0.174425
0.173183
0.172279
0.171684
0.171296
0.17106
0.170979
0.171123
0.171547
0.172261
0.173215
0.17442
0.175846
0.177483
0.179488
0.181972
0.184756
0.18771
0.191027
0.194999
0.19998
0.206268
0.213236
0.220818
0.22979
0.240166
0.252065
0.265525
0.28053
0.259866
0.260021
0.260159
0.260292
0.260422
0.260552
0.260682
0.26081
0.260938
0.261066
0.261192
0.261319
0.261444
0.261569
0.261694
0.261817
0.261941
0.26207
0.261788
0.140816
0.131154
0.48167
0.795414
0.916582
1.03268
1.15013
1.33739
1.57498
1.74291
1.81448
1.82747
1.81184
1.82314
1.85591
1.89337
1.91348
1.91925
1.91148
1.88135
1.86084
1.85276
1.8541
1.85523
1.86162
1.87343
1.89737
1.93007
1.95645
1.9586
1.93624
1.89025
1.82252
1.73082
1.60963
1.47297
1.31286
1.17642
1.05971
0.95561
0.86279
0.785969
0.721693
0.665594
0.617031
0.574076
0.536067
0.502141
0.471865
0.445289
0.421711
0.400673
0.381709
0.364541
0.348945
0.334468
0.321053
0.308624
0.297223
0.286649
0.276626
0.267279
0.258782
0.251266
0.244555
0.238575
0.233358
0.228696
0.224437
0.220551
0.217138
0.213987
0.210938
0.208057
0.205353
0.202855
0.200644
0.198772
0.197293
0.196238
0.19558
0.195267
0.195166
0.195249
0.195563
0.196149
0.19704
0.198172
0.199595
0.201319
0.20337
0.205981
0.209181
0.212821
0.216798
0.221413
0.227017
0.233952
0.242657
0.252104
0.262862
0.27561
0.290439
0.307459
0.326718
0.348578
0.280103
0.280166
0.280222
0.280274
0.280326
0.280377
0.280428
0.280478
0.280528
0.280578
0.280627
0.280675
0.280724
0.280772
0.280819
0.280866
0.280913
0.280963
0.281011
0.231766
0.0973329
0.351833
0.738069
0.988517
1.20627
1.46689
1.64935
1.72037
1.75031
1.7494
1.7445
1.77339
1.80621
1.85449
1.90342
1.94693
1.98185
1.9869
1.96784
1.94211
1.9203
1.91301
1.91791
1.93179
1.9495
1.94852
1.91331
1.80872
1.67543
1.58021
1.51369
1.44593
1.40621
1.3866
1.37555
1.34301
1.27546
1.18989
1.08763
0.982775
0.889426
0.811298
0.746509
0.691427
0.644758
0.604031
0.566697
0.531975
0.500936
0.474585
0.452923
0.432973
0.413574
0.39578
0.37927
0.363522
0.348622
0.335134
0.322983
0.311545
0.300739
0.290732
0.281859
0.274109
0.267136
0.260869
0.255162