/*--------------------------------*- C++ -*----------------------------------*\
| =========                 |                                                 |
| \\      /  F ield         | OpenFOAM: The Open Source CFD Toolbox           |
|  \\    /   O peration     | Version:  2112                                  |
|   \\  /    A nd           | Website:  www.openfoam.com                      |
|    \\/     M anipulation  |                                                 |
\*---------------------------------------------------------------------------*/
FoamFile
{
    version     2.0;
    format      ascii;
    arch        "LSB;label=32;scalar=64";
    class       volScalarField;
    location    "0.00369";
    object      k;
}
// * * * * * * * * * * * * * * * * * * * * * * * * * * * * * * * * * * * * * //

dimensions      [0 2 -2 0 0 0 0];

internalField   nonuniform List<scalar> 
13875
(
812.079
3462.68
3540.15
3539.33
3542.55
3540.35
3540.47
3541.25
3540.99
3541.33
3541.91
3540.66
3540.72
3540.58
3540.44
3541.5
3542.47
3541.34
3540.6
3539.66
3542.05
3539.01
3539.97
3462.39
820.33
881.794
2936.7
3012.94
3000.54
3000.89
2997.22
2996.45
2997.11
2996.68
2997.05
2997.69
2996.72
2996.64
2996.83
2996.31
2998.41
2995.8
2997.83
2997.38
2997.44
3000.41
2998.98
3011.49
2935.1
894.214
993.375
2710.93
2777.37
2754.98
2756.59
2753.6
2752.31
2751.78
2744.2
2742.95
2744.54
2744.03
2751.67
2752.63
2751.17
2745.75
2741.49
2745.7
2752.62
2754.49
2756.97
2752.6
2774.32
2707.15
998.045
1091.1
2533.75
2580.91
2561.17
2564.5
2561.77
2560.18
2559.39
2549.98
2549.06
2550.28
2550.14
2559.37
2560.32
2559.06
2550.6
2548.4
2551.02
2560.42
2562.45
2564.88
2558.9
2578.95
2529.51
1093.7
1172.17
2380.51
2413.07
2392.48
2395.65
2393.16
2391.61
2390.41
2380.99
2380.8
2381.49
2381.37
2390.58
2391.57
2390.37
2381.29
2380.17
2381.64
2391.4
2393.94
2396.15
2390.66
2410.31
2375.27
1177.28
1241.1
2237.21
2270.81
2244.46
2248.57
2245.52
2243.51
2241.5
2231.89
2232.31
2232.36
2232.22
2241.6
2242.83
2241.52
2231.55
2231.81
2232.17
2242.75
2246.6
2249.3
2243.35
2267.64
2247.06
1247.32
1321.12
2121.91
2158.19
2119.9
2120.47
2115.83
2112.67
2109.65
2099.93
2100.97
2100.31
2100.12
2109.84
2111.39
2109.64
2098.84
2100.62
2100.22
2111.65
2117.03
2121.25
2119.45
2153.95
2095.64
1323.64
1410.14
2001.11
2073.66
2019.56
2014.14
2005.16
1999.08
1994.17
1983.8
1984.91
1983.87
1983.48
1993.57
1995.85
1993.58
1981.55
1985.27
1984.33
1997.25
2005.96
2014.36
2018.74
2067.96
1992.5
1420.65
1692.07
2029.5
2022.46
1945.27
1924.57
1911.03
1901.69
1894.25
1883.28
1884.42
1883.07
1882.5
1892.88
1896.1
1893.25
1880.24
1885.58
1884.54
1898.63
1911.52
1925.47
1943.25
2018.32
2034.23
1717.52
2510.29
2287.63
2019.64
1900.55
1865.74
1841.21
1827.36
1816.69
1806.79
1807.29
1805.72
1805.18
1815.32
1819.44
1816.39
1804.06
1808.81
1808.74
1822.07
1839.88
1864.45
1897.78
2013.22
2266.5
2527.86
3881.48
3030.85
2160.14
1928.61
1837.22
1800.88
1780.62
1766.63
1757.77
1757.09
1755.32
1754.86
1764.33
1769.14
1766.76
1757.07
1759.89
1761.41
1774.48
1796.26
1835.57
1922.88
2141.53
2947.86
3865.14
5179.96
6433.39
2913.3
2027.4
1898.2
1813.48
1773.55
1754.34
1743.67
1740.94
1738.75
1738.57
1746.64
1751.93
1750.63
1744.83
1747.25
1752.04
1768.17
1808.75
1890.47
2006.22
2839.17
6331.15
5119.84
5064.83
7312.78
7350.83
3614.64
2137.87
1902.14
1849.83
1826.23
1814.58
1809.6
1807.31
1807.64
1814.53
1819.28
1819.45
1817.53
1822.06
1830.27
1850.85
1910.92
2187.24
3492.52
7039.95
7303.68
5013.11
4834.42
6175.86
7325.09
9478.92
5317.53
2649.38
2291.11
2136.88
2082.99
2064.48
2056.46
2055.83
2061.35
2067.76
2070.67
2076.54
2095.7
2149.84
2316.9
2771.41
5774.45
8759.36
7076.96
6157.32
4852.79
4652.27
5475.21
6224.67
7594.19
6785.93
6132.3
5810.62
4625.02
4597.32
4627.19
4671.07
4657.78
4693.59
4688.9
4699.47
4662.88
4625.03
4668.09
5890.33
6306.55
6849.47
7234.54
6101.68
5448.82
4751.76
4447.37
4927.39
5694.08
6962.12
7168.98
7891.09
7054.97
6040.35
6358.58
6742.09
6865.98
6872.01
6928.15
6970.54
6906.29
6818.06
6343.93
5993.72
6902.07
7985.5
7237.67
6738.84
5590.02
4878.23
4530.27
4122.42
4648.4
5509.9
6681.46
7014.47
7906.53
6447.91
5309.27
5156.77
5242.82
5325.47
5327.85
5363.41
5388.98
5365.68
5292.76
5170.81
5352.66
6310.41
7924.92
7157.59
6551.95
5414.99
4519.39
4079.74
3576.74
4564.94
5667.74
5968.86
6065.26
6854.39
5779.67
4829.15
4533.46
4456.99
4469.39
4445.8
4476.24
4495.29
4508.74
4494.11
4567.48
4889.44
5670.2
6700.32
6126.55
5980.67
5747.24
4492.31
3502.96
3017.3
4618.61
5469.18
5335.94
5184.49
5647.03
5343.64
4766.53
4338.96
4031.8
3889.94
3820.64
3829.92
3853.45
3907.57
4019.87
4309.53
4730.51
5209.68
5549.34
5207.85
5399.27
5614.78
4708.17
2997.77
2812.18
5050.69
5037.52
4759.64
4579.19
4866.15
4910.83
4623.14
4217.4
3783.79
3503.71
3373.97
3361.51
3403.42
3522.78
3779.61
4203.34
4587.88
4808.35
4811.66
4624.79
4840.94
5144.91
5093.87
2812.51
3303.9
4492.88
4439.19
4221.83
4088.69
4330.92
4475.2
4320.5
3970.61
3517.35
3171.5
2997.22
2970.53
3031.98
3207.41
3542.71
3980.85
4294.6
4400.94
4311.72
4153.65
4323.98
4563.31
4510.24
3309.01
4645.62
4801.21
4025.39
3808.75
3705.34
3922.66
4062.52
3968.85
3675.09
3236.46
2867.84
2672.4
2634.47
2705.63
2905.68
3264.94
3682.4
3936.21
3997.89
3928.89
3774.92
3905.12
4141.11
5044.25
4824.18
5360.97
5294.92
3717.74
3435.9
3378.44
3560.02
3674.83
3611.37
3359.76
2953.4
2590.43
2389.87
2345.22
2414.47
2615.54
2969.61
3356.58
3568.87
3601.18
3562.93
3437.61
3512.24
3798.16
5586.1
5544.42
5526.38
5268.27
3396.31
3128.41
3081.33
3207.38
3316.88
3273.66
3044.84
2665.3
2327.05
2140.02
2097.85
2165.07
2356.39
2688.56
3047.03
3236.99
3246.1
3202.52
3138.57
3205.81
3480.7
5488.8
5684.9
5598.4
5132.4
3150.73
2885.28
2825.52
2904.58
3005.23
2966.51
2759.16
2412.91
2099.56
1926.8
1888.49
1950.25
2127.83
2439.81
2767.43
2934.71
2939.29
2889.82
2868.84
2955.09
3233.49
5387.67
5766.42
5664.38
5058.22
2969.42
2697.46
2607.93
2652.48
2733.34
2688.94
2500.17
2188.17
1903.63
1745.29
1709.15
1765.35
1925.92
2208.69
2502.8
2654.75
2668.1
2627.37
2630.44
2749.46
3037.49
5232.98
5833.3
5732.19
4946.52
2818.26
2533.67
2425
2436.54
2487.83
2433.14
2260.24
1983.23
1729.02
1588.41
1556.16
1607.96
1754.17
2010.93
2275.92
2414.38
2435.92
2411.87
2439.51
2580.3
2889.13
5173.02
5921.85
5834.1
4852.17
2708.72
2388.42
2277.69
2260.07
2278.93
2213.62
2054.01
1806.96
1581
1454.98
1424.65
1472.04
1603
1830.45
2066.78
2197.07
2231.79
2232.47
2281.93
2424.08
2765.6
5048.05
6043.01
6036.13
4742.42
2607.27
2258.2
2146.83
2110.25
2097.53
2023.07
1874.96
1654.47
1452.77
1339.3
1310.86
1353.48
1468.9
1669.36
1881.18
2005.66
2052.21
2079.01
2141.64
2281.55
2652.77
4853.91
6166.24
6105.37
4628.83
2518.95
2136.96
2022.7
1975.12
1934.93
1849.85
1708.62
1512.81
1337.42
1238.02
1212.04
1252.29
1356.55
1533.97
1724.06
1844.85
1903.41
1949.11
2016.61
2159.42
2566.68
4768.64
6311.38
6045.63
4522.43
2459.37
2039.87
1911.5
1853.29
1796.36
1705.67
1571.2
1394.88
1239.03
1149.86
1125.67
1162.68
1254.52
1410.75
1582.96
1701.47
1769
1827.77
1899.45
2058.09
2489.8
4632.02
6248.65
6005.79
4450.86
2413.73
1972.19
1809.55
1743.08
1676.76
1580.68
1451.92
1291.88
1153.7
1073.27
1050.2
1084.31
1166.14
1303.31
1459.35
1576.27
1652.19
1717.7
1795.22
1982.27
2431.79
4500.72
6137.15
5914.97
4308.83
2395.73
1917.27
1720.51
1638.97
1565.59
1467.41
1344.69
1199.49
1076.41
1004.82
983.595
1015.76
1089.51
1212.51
1356.29
1468.54
1548.04
1617.94
1706.27
1923.95
2404.3
4400.95
6081.03
5874.33
4179.16
2386.89
1886.71
1647.92
1548.58
1467.73
1370.47
1252.98
1120.22
1010.31
945.309
924.952
954.748
1021.29
1130.29
1261.5
1371.48
1453.52
1529.97
1633.08
1886.66
2410.87
4254.05
5997.91
5845.58
4085.77
2338.61
1868.12
1595.02
1468.43
1379.48
1284.21
1173.84
1052.15
951.574
892.359
872.984
900.611
960.751
1059.76
1180.27
1285.28
1367.29
1451.81
1582.19
1873.53
2387.6
4108.84
5927.2
5766.08
3930.42
2259.88
1854.78
1557.88
1400.72
1300.94
1205.12
1100.38
988.794
898.868
845.204
826.931
853.272
908.941
998.336
1108.95
1210.13
1293.59
1387.72
1547.87
1874.3
2318.76
3995.2
5862.9
5711.93
3805.62
2187.92
1873.27
1535.06
1348.74
1233.3
1136.26
1037.27
934.906
852.325
802.755
785.507
810.314
860.993
942.828
1044.03
1140.57
1227.03
1337.63
1527.34
1900.86
2229.75
3827.62
5773.97
5687.35
3685.4
2119.33
1871.16
1532.5
1310.41
1178.26
1076.88
981.037
885.702
810.72
764.884
748.448
772.075
818.529
892.234
986.149
1080.68
1175.16
1302.23
1534.1
1903.18
2140.18
3679.79
5727.51
5623.99
3551.16
2019.33
1819.37
1537.56
1282.28
1135.72
1024.71
929.78
841.056
772.253
729.997
714.802
737.458
780.376
848.916
936.48
1029.62
1135.16
1278.27
1552.97
1861.54
2043.48
3559.21
5704.25
5583.5
3453.2
1920.99
1764.76
1581.49
1270.74
1104.37
983.668
886.162
801.731
738.23
699.053
684.346
705.769
745.416
808.385
891.686
988.552
1103.74
1270.24
1605.89
1801.29
1933.34
3441.13
5640.36
5557.74
3387.41
1843.98
1700.59
1594.23
1276.41
1081.79
953.269
849.84
767.463
707.442
670.539
656.563
676.574
713.695
773.085
854.463
957.171
1082.29
1289.86
1626.81
1731.62
1840.36
3358.98
5590.5
5501.72
3314.98
1761.95
1623.83
1555.62
1303.63
1067.53
928.316
820.643
737.559
679.424
644.666
631.245
650.665
685.733
743.501
825.616
933.282
1076.78
1345.32
1581.3
1654.86
1785.01
3307.59
5560.36
5456.08
3258.55
1704.76
1548.78
1500.85
1353.67
1075.65
910.171
799.838
712.652
655.005
620.972
607.97
626.602
660.458
717.975
803.673
914.398
1094.82
1387.94
1519.22
1573.72
1714.86
3237.46
5502.18
5422.77
3220.12
1678.56
1484.68
1439.43
1357.43
1117.08
900.816
781.989
693.902
635.08
600.395
587.093
605.605
639.976
699.076
785.75
908.391
1154.6
1377.67
1448.18
1503.47
1670.27
3177.8
5456.91
5391.12
3154.29
1632.1
1424.74
1373.82
1316.03
1189.79
909.471
768.372
680.609
620.631
583.277
569.327
588.392
624.969
685.669
774.58
934.511
1215.38
1331.06
1378
1444.57
1651.99
3133.37
5422.92
5357.21
3101.3
1615.63
1376.24
1313.16
1270.67
1218.4
966.912
764.395
669.433
610.074
571.189
555.379
576.114
613.606
673.985
774.001
995.476
1214.29
1278.62
1316.68
1391.69
1622.12
3067.79
5393.15
5326.62
3060.44
1610.54
1338.92
1262.54
1221.08
1183.77
1044.11
790.694
662.334
600.05
561.586
544.716
566.368
603.466
666.862
806.99
1063.69
1179.45
1224.56
1265.86
1350.47
1600.88
3009.92
5352.39
5253.64
2985.64
1584.11
1304.16
1217.68
1171.81
1143.81
1069.46
856.847
667.602
591.986
552.935
536.112
557.61
596.242
680.021
888.577
1075.35
1141.36
1176.6
1223.32
1319.1
1593.54
2957.62
5265.33
5121.23
2896.46
1560.45
1273.4
1179.45
1128.95
1099.62
1043.88
927.462
705.08
590.606
545.48
528.733
549.834
596.016
724.145
945.547
1048.86
1098.9
1134.55
1186.86
1287.4
1565.46
2864.58
5125.8
4734.53
2745.19
1531.05
1241.89
1145.29
1091.42
1057.38
1012.51
944.283
782.872
610.784
543.049
524.716
546.855
619.158
800.382
944.202
1016.26
1058.07
1098.16
1153.5
1252.83
1527.92
2706.84
4742.08
344.049
494.903
555.149
571.922
576.935
581.359
586.326
594.809
604.821
617.028
630.388
645.831
662.697
680.182
697.627
713.791
729.667
746.981
765.166
783.158
801.104
820.008
838.134
862.02
894.332
965.769
1229.85
1647.75
1562.78
772.543
306.385
480.279
543.173
561.469
567.206
572.834
580.293
591.701
604.986
620.443
636.848
653.921
671.833
689.792
706.484
721.933
737.37
751.983
766.404
782.888
798.587
813.275
832.861
857.376
900.988
1081.24
1637.91
1772.79
1634.21
751.883
295.194
477.696
537.055
553.989
560.134
568.025
578.57
593.425
610.24
628.97
648.316
667.635
686.389
704.052
720.004
734.256
747.253
758.85
771.056
784.757
801.657
816.748
838.632
867.241
965.293
1407.23
1817.1
1828.33
1697.16
780.118
294.782
479.525
534.607
551.384
559.291
570.024
583.924
602.099
622.27
644.002
665.485
686.371
705.717
722.902
738.18
751.223
762.613
772.811
784.221
797.769
814.959
832.591
856.075
908.54
1181.69
1791.44
1926.16
1895.32
1744.87
815.417
296.111
480.683
535.414
552.786
563.003
576.658
593.953
615.45
638.662
662.956
686.607
708.92
729.02
745.745
760.104
772.249
782.739
791.979
802.64
816.133
832.566
853.321
885.073
1034.89
1653.75
1963.14
2002.95
1943.6
1766.97
858.703
298.334
482.683
537.54
555.942
569.132
585.956
607.1
631.941
658.218
685.304
711.334
734.623
755.049
771.402
785.567
797.008
806.603
814.952
825.041
838.324
854.789
878.877
954.869
1386.91
1956.39
2051.48
2058
1968.51
1773.83
898.542
301.508
485.657
540.926
561.249
578.143
599.006
624.405
652.799
682.082
711.725
739.08
762.734
783.065
799.648
812.542
823.523
833.006
841.395
850.512
862.67
879.778
921.325
1156.97
1868.98
2082.41
2107.66
2085.26
1979.47
1767.22
932.921
305.044
489.952
546.159
569.55
591.032
616.961
646.931
678.549
710.303
740.924
768.68
792.341
812.44
828.579
840.578
850.804
859.969
868.489
876.64
887.748
910.913
1027.34
1622.52
2075.55
2138.92
2136.44
2096.3
1980.3
1752.61
960.482
308.595
495.528
553.615
581.209
608.152
639.285
673.387
707.562
740.56
770.929
798.29
821.544
840.709
856.748
868.488
877.486
886.077
894.044
901.29
913.434
965.991
1310.34
2000.92
2148.51
2163.76
2143.56
2097.45
1975.71
1729.76
980.976
312
502.761
563.761
596.344
629.113
664.697
702.098
737.777
770.788
800.159
826.284
848.241
866.57
881.885
893.564
901.579
908.942
915.793
922.544
944.735
1104.16
1794.36
2132.62
2169.49
2163.33
2134.07
2092.58
1960.24
1698.79
995.687
316.084
512.419
577.312
615.165
653.253
692.561
731.705
767.273
798.461
825.653
849.98
870.143
887.346
901.925
912.668
919.511
925.477
930.744
940.758
1004.75
1431.58
2057.15
2154.71
2157.64
2146.49
2116.19
2075.46
1932.99
1659.78
1004.38
321.074
525.28
594.807
637.832
680.127
721.242
759.633
792.563
820.198
844.439
865.919
883.917
899.596
912.837
922.326
928.12
932.494
938.632
962.891
1150.02
1868.22
2121.12
2136.72
2127.64
2112.81
2090.03
2046.32
1893.59
1614.45
1006.95
328.364
541.938
616.127
663.465
707.557
747.262
781.612
809.49
833.114
852.4
870.218
885.615
899.363
911.109
919.771
925.054
929.441
941.227
1010.05
1471.02
2040.7
2099.11
2091.94
2084.06
2069.18
2050.74
2003.84
1843.41
1565.04
1004.25
337.656
562.537
640.415
689.441
731.621
766.472
793.409
814.964
832.03
845.547
859.253
871.516
882.86
894.139
903.373
909.839
917.317
942.301
1130.7
1832.64
2050.13
2044.22
2031.89
2026.41
2015.99
1999.92
1949.89
1785.63
1512.52
997.341
350.201
587.009
665.783
711.559
746.859
774.086
791.846
803.999
813.31
822.075
831.416
841.184
851.536
863.289
873.646
881.958
895.668
961.019
1395.89
1942.56
1985.25
1966.85
1960.99
1957.2
1954.16
1940.79
1888.17
1722.85
1457.92
986.812
364.503
613.19
688.296
724.956
748.502
764.454
771.679
775.234
778.225
782.991
788.886
796.656
806.489
818.987
830.059
841.76
869.968
1037.1
1678.59
1921.3
1897.51
1880.4
1880.28
1880.98
1885.61
1875.16
1820.72
1657.08
1403
973.321
383.331
639.64
703.923
725.187
734.046
738.103
736.218
733.457
731.562
732.832
736.099
742.425
751.482
763.397
776.79
796.903
860.652
1260.82
1792.38
1844.49
1803.34
1790.38
1792.65
1803
1811.79
1804.88
1749.6
1589.78
1348.57
957.604
401.453
659.007
704.974
710.003
705.73
701.968
694.976
688.338
683.302
680.735
680.791
685.44
694.078
707.548
724.044
754.398
928.003
1534.14
1747.82
1736.01
1702.47
1695.88
1704.52
1723.07
1737.19
1732.74
1677.21
1522.44
1294.93
940.163
422.459
673.455
698.706
683.911
674.917
669.805
663.82
653.502
644.056
639.497
639.554
642.303
649.209
661.007
679.353
762.437
1194.32
1565.1
1646.97
1624.02
1602.47
1601.11
1620.98
1643.94
1662.31
1659.94
1604.45
1455.82
1242.52
921.097
443.059
679.209
678.93
666.945
668.835
671.83
666.196
651.643
639.021
630.356
628.893
629.133
635.065
647.039
696.846
977.774
1354.99
1494.58
1537.06
1520.81
1504.31
1515.31
1539.35
1567.79
1589.2
1587.56
1531.78
1390.31
1192.15
900.669
464.188
688.489
687.241
686.805
715.701
727.285
729.246
707.172
692.312
681.702
690.773
708.84
736.428
779.369
961.531
1240.89
1347.09
1410.18
1439.51
1425.61
1416.48
1434.52
1463.57
1495.49
1518.99
1517.4
1461.72
1327.46
1144.04
879.237
501.383
753.827
765.921
833.305
872.106
882.75
878.436
852.15
853.829
898.672
1006.98
1140.34
1201.7
1226.61
1313.06
1348.06
1327.33
1347.96
1361.57
1338.18
1343.01
1360.76
1394
1428.59
1453.28
1451.12
1396.17
1268.63
1098.56
857.197
585.604
862.92
1003.52
1057.74
1104.89
1127.88
1133.77
1166.39
1386.09
1710.57
1904.69
1931.38
1817.74
1675.09
1580.92
1443.82
1322.8
1302.24
1294.67
1267.84
1274.77
1297.55
1332.76
1368.14
1392.57
1388.82
1335.7
1214.31
1056.32
835.137
702.646
1404.41
1356.55
1309.25
1368.31
1419.69
1571.34
2105.15
2735.94
2953.47
2889.14
2716.38
2444.8
2125.64
1814.97
1537.89
1340.46
1269.27
1237.88
1210.63
1217.27
1242.96
1279.52
1314.86
1337.69
1331.64
1279.35
1164.26
1018.1
813.497
951.989
2054.81
1648.8
1529.69
1625.34
1793.49
2656.03
3690.16
4118.22
4181.15
3856.46
3412.58
2929.9
2435.25
1993.77
1612.62
1360.05
1243.75
1189.05
1160.5
1168.81
1196.61
1233.74
1267.9
1288.15
1279.87
1227.42
1118.2
982.815
792.403
771.951
1563.25
1646.9
1228.25
964.9
893.551
861.238
837.159
819.07
800.299
782.377
764.523
746.605
729.193
713.514
697.218
679.808
662.406
645.67
630.376
617.351
605.314
595.435
586.933
581.974
577.456
572.376
555.506
495.216
344.266
751.022
1635.16
1773.91
1636.83
1080.12
900.02
856.324
831.77
812.036
797.573
781.696
765.527
751.415
736.965
721.902
706.415
689.607
671.704
654.121
637.391
621.509
605.937
592.55
581.17
573.714
568.166
562.307
543.817
480.798
306.653
779.685
1698.64
1830.91
1817.77
1406.54
964.37
866.182
837.539
815.545
800.469
783.748
770.07
758.242
746.99
734.006
720.113
704.27
686.833
668.438
649.393
630.05
611.406
594.427
579.566
569.05
561.21
555.099
538.024
478.481
295.567
815.494
1747.22
1898.41
1928.07
1791.73
1181.19
907.536
854.959
831.443
813.765
796.797
783.323
772.222
762.298
751.166
738.393
723.484
706.778
687.83
667.037
645.357
623.492
603.257
585.061
571.156
560.482
552.611
535.82
480.609
295.27
859.207
1770.17
1946.87
2005.52
1964.38
1654.24
1034.17
883.985
852.227
831.528
815.275
801.874
791.473
782.421
772.247
760.674
746.788
730.633
710.913
688.485
664.578
640.073
616.776
595.266
577.939
564.291
554.09
536.652
481.78
296.447
899.288
1777.41
1971.8
2060.8
2053.51
1957.39
1387.44
953.978
877.822
853.803
837.489
824.3
814.596
806.56
797.263
786.124
772.762
756.967
736.768
713.414
687.014
659.765
633.373
608.513
587.381
570.509
557.248
538.731
483.697
298.838
933.776
1770.69
1982.68
2088.08
2109.9
2083.86
1869.86
1156.82
920.361
878.795
862.015
850.027
841.438
833.184
824.217
813.655
801.455
785.212
764.859
741.155
713.465
683.809
654.417
625.95
600.52
579.617
562.582
542.042
486.586
302.253
961.364
1755.72
1983.16
2099
2138.61
2140.66
2076.51
1623.25
1026.7
910.011
887.011
876.535
869.035
860.556
851.844
842.474
830.903
814.491
794.189
770.164
742.47
712.159
680.469
648.749
618.658
592.599
570.919
547.211
490.74
305.616
981.786
1732.39
1978.15
2099.72
2145.75
2165.62
2149.72
2001.64
1310.61
965.336
912.999
901.581
894.738
887.356
879.213
870.653
859.272
842.693
823.135
799.733
772.59
742.578
709.86
675.735
641.427
609.942
582.706
554.7
496.306
309.274
996.432
1701.02
1962.4
2094.56
2136.19
2165.45
2171.1
2133.47
1795.11
1103.86
944.717
923.442
916.766
910.82
904.322
896.395
884.397
868.886
849.979
827.623
801.779
772.838
740.231
704.776
667.235
631.233
598.057
564.958
503.623
312.725
1005.1
1661.72
1935.07
2077.39
2118.34
2148.97
2159.91
2156
2058.06
1432.39
1005.02
941.919
932.497
927.779
922.891
915.699
904.2
889.597
871.757
851.078
827.102
800.509
769.678
734.232
695.077
655.618
617.14
578.657
513.478
316.938
1007.63
1616.16
1895.77
2048.4
2092.41
2115.65
2130.85
2138.92
2122.34
1869.54
1150.58
964.448
941.22
935.871
931.919
925.402
914.797
901.494
885.234
866.804
845.544
822.115
794.599
761.845
723.48
682.28
639.916
596.439
526.635
322.289
1004.95
1566.76
1845.79
2006.2
2053.51
2072.67
2088.34
2095.33
2100.64
2040.36
1471.11
1011.75
944.121
933.272
928.904
922.691
912.703
900.68
886.377
870.717
853.119
834.002
810.661
782.999
749.027
709.251
665.327
617.937
543.504
329.782
998.019
1514.32
1788.09
1952.48
2003.1
2020.26
2031.49
2036.75
2046.81
2050.68
1831.99
1132.22
945.159
919.873
912.203
904.596
894.429
883.115
871.128
858.866
845.317
831.543
814.807
793.741
767.166
732.545
690.86
642.228
564.314
339.267
987.486
1459.95
1725.37
1891.02
1944.35
1958.97
1962.86
1967.29
1971.33
1987.86
1943.27
1397.97
963.441
897.031
882.052
873.069
862.242
850.533
839.772
830.083
820.142
811.456
802.152
790.408
773.405
746.99
712.395
667.357
588.861
351.888
974.071
1405.07
1659.72
1824.09
1879.05
1890.63
1887.01
1887.24
1887.2
1901.87
1923.32
1684.05
1039.7
870.206
840.136
827.173
816.581
804.361
794.236
786.7
779.986
775.013
772.254
769.618
763.282
747.977
725.249
689.426
614.848
366.053
958.538
1350.86
1592.69
1753.44
1809.16
1817.13
1808.94
1799.5
1797.63
1807.24
1845.65
1790.11
1264.58
860.492
794.885
774.014
759.854
748.381
739.06
733.381
729.556
728.197
730.192
733.95
736.807
733.472
725.042
704.743
641.131
384.527
941.316
1297.62
1525.87
1681.46
1737.21
1742.47
1729.34
1710.69
1702.28
1706.97
1736.32
1743.43
1534.2
929.572
753.424
722.084
705.485
692.398
683.274
678.892
678.687
680.649
685.196
692.859
700.895
705.321
709.65
705.366
660.201
402.466
922.468
1245.46
1459.59
1609.16
1664.74
1667.63
1649.77
1626.78
1606.12
1606.75
1624.11
1641.1
1558.8
1197.56
765.022
679.326
660.557
648.866
642.507
640.339
640.104
645.806
654.318
663.191
670.564
675.631
684.433
699.631
674.749
423.461
902.106
1194.95
1394.08
1536.79
1592.42
1594.2
1573.29
1544.83
1519.71
1507.47
1521.07
1531.55
1485.79
1349.85
990.848
704.983
654.209
639.348
633.701
633.012
633.789
643.853
656.235
670.155
674.13
673.62
670.171
680.993
680.689
444.004
880.74
1146.85
1330.97
1466.29
1521.86
1523.52
1500.38
1468.28
1439.42
1419.03
1425.6
1435.19
1402.85
1340.93
1243.56
987.484
821.514
765.477
736.982
707.256
689.473
699.936
717.852
740.188
738.289
726.131
694.518
690.851
690.514
465.416
858.786
1101.15
1271.72
1400.12
1455.1
1457.28
1432.91
1398.37
1364.9
1345.26
1338.26
1358.09
1342.33
1324.99
1352.14
1327.9
1276.23
1274.59
1242.8
1098.13
946.253
874.413
865.631
896.269
904.042
893.076
852.835
777.164
759.843
503.345
836.663
1058.35
1216.97
1339.06
1392.65
1396.19
1371.66
1335.91
1300.4
1277.68
1267.8
1291.78
1297.77
1323.96
1453.87
1603.6
1726.3
1886.87
2036.32
2040.61
1874.06
1510.47
1220.36
1155.88
1150.34
1129.12
1083.12
1031.72
877.761
591.479
814.868
1019.34
1166.52
1282.51
1334.53
1340.35
1317.32
1281.73
1244.91
1219.95
1208.36
1237.47
1266.93
1345.45
1555.67
1846.84
2180.5
2521.79
2824.3
3040.07
3132.23
2923.51
2321.86
1658.88
1444.69
1382.76
1323.24
1384.39
1432.39
711.811
793.664
983.59
1120.13
1230.01
1282.1
1290.27
1269.68
1235.29
1198.09
1170.51
1159.49
1187.56
1243.21
1367.18
1631.4
2029.08
2489.38
2999.98
3483.01
3986.23
4349.04
4323.18
3889.51
2899.21
1878.37
1652.12
1549.93
1663.92
2073.52
962.419
235.74
236.035
236.341
236.646
236.951
237.255
237.56
237.864
238.168
238.473
238.777
239.081
239.385
239.689
239.992
240.296
240.6
240.924
243.086
364.896
1223.81
2225.68
2784.96
3188.25
3550.66
3839.13
4058.15
4198.41
4288.54
4308.68
4245.53
4136.75
4021.72
3882.16
3788.38
3690.71
3602.33
3518.52
3427.5
3360.95
3292.2
3223.11
3153.94
3087.93
3024.38
2964.66
2901.26
2833.45
2756.98
2670.21
2568.53
2451.69
2325.45
2197.85
2071.76
1951.01
1836.75
1731.67
1636.88
1553.4
1479.52
1411.81
1348.57
1289.24
1233.81
1181.57
1132.4
1086.41
1043.84
1004.6
968.24
934.327
902.916
873.945
847.228
822.366
799.213
777.777
757.711
738.842
721.202
704.944
690.245
677.034
665.177
654.684
645.35
636.944
629.321
622.375
615.98
610.067
604.611
599.601
595.027
590.936
587.404
584.505
582.293
580.766
579.902
579.678
580.107
581.191
582.945
585.34
588.299
591.729
595.64
600.054
605.016
610.727
617.112
623.778
631.11
639.42
649.05
660.199
672.342
685.439
700.138
716.438
734.191
753.138
773.077
414.167
414.436
414.682
414.921
415.158
415.393
415.627
415.861
416.095
416.328
416.56
416.791
417.022
417.252
417.482
417.711
417.94
418.198
421.857
633.399
2629.57
5012.57
5540.66
5168.08
4922.96
4958.26
5171.45
5311.43
5170.45
4752.33
4345.9
4016.6
3773.79
3596.81
3458.45
3346.79
3257.61
3193.96
3156.45
3129.8
3110.84
3102.04
3100.82
3102.98
3109.45
3121.7
3139.27
3161.72
3178.9
3166.89
3109.44
3002.28
2872.09
2732.9
2582.77
2432.48
2285.38
2148.95
2029.78
1923.15
1826.34
1739.22
1660.69
1590.34
1527.75
1471.04
1418.73
1369.79
1323.93
1281.34
1241.88
1205.3
1170.47
1137.55
1107.49
1079.91
1053.47
1028.35
1004.09
980.433
958.354
936.841
917.034
899.014
882.2
866.497
851.921
838.725
826.892
815.772
804.878
794.507
785.043
776.35
768.237
760.756
754.103
748.369
743.581
739.665
736.436
733.772
731.591
730.145
729.593
729.837
730.719
732.152
733.971
736.353
739.806
744.222
749.015
754.089
760.226
768.167
778.97
792.131
806.32
822.395
841.706
864.077
889.863
919.047
950.636
472.235
472.383
472.517
472.645
472.772
472.898
473.023
473.147
473.271
473.394
473.517
473.639
473.76
473.881
474.001
474.12
474.239
474.366
475.283
546.116
2082.43
5081.64
6091.87
5779.1
5275.04
4904.37
4754.32
4594.36
4367.78
4163.65
3962.46
3773.87
3632.97
3532.14
3471.27
3432.51
3405.39
3380.48
3362.7
3362.3
3377.07
3414.21
3463.59
3528.37
3615.58
3742.63
3925.35
4157.06
4407.14
4627.62
4736.65
4674.44
4447.81
4131.05
3806.15
3462.64
3157.92
2884.56
2645.56
2437.7
2269.07
2130.16
2006.75
1899.35
1806.48
1723.39
1649.23
1583.63
1525.44
1471.7
1422.07
1376.23
1334.28
1295.85
1259.73
1226.08
1194.46
1164.54
1135.99
1108.42
1082.57
1058.8
1037.3
1017.13
998.225
981.06
965.349
950.757
937.267
924.953
913.232
901.736
890.735
880.471
870.938
862.087
854.054
847.128
841.458
836.994
833.471
830.52
828.023
826.04
824.757
824.254
824.473
825.269
826.606
828.695
831.714
835.746
840.296
845.303
851.876
861.19
873.681
888.237
903.864
922.874
945.777
972.724
1003.55
1038.42
1077.67
490.884
490.943
490.995
491.044
491.092
491.14
491.187
491.234
491.281
491.327
491.372
491.418
491.463
491.507
491.552
491.596
491.639
491.686
491.967
516.044
1349.68
4193.65
5899.52
5735.6
5365.64
5151.72
4871.26
4578.31
4322.87
4086.84
3862.48
3656.3
3509.02
3434.18
3411.06
3419.8
3438.61
3449.35
3462.27
3492.83
3556.99
3671.27
3838.75
4073.48
4395.23
4824.15
5398.96
6086.87
6863.06
7610.47
8013.78
7862.43
7260.44
6453.06
5887.45
5485.84
4965.34
4409.03
3848.26
3372.33
3007.09
2727.91
2509.34
2334.29
2194.41
2076.41
1971.77
1876.98
1792.89
1723.71
1666.72
1613.36
1559.42
1509
1460.44
1412.38
1368.58
1328.98
1293.49
1260.16
1228
1198.62
1172.65
1149.31
1127.37
1107.17
1088.43
1070.62
1053.55
1037.35
1022.68
1009.44
997.457
986.579
976.495
966.853
957.832
950.004
943.412
938.13
933.948
930.356
927.26
924.572
922.356
920.801
920.057
920.082
920.877
922.641
925.373
928.684
931.844
935.386
941.277
951.241
963.954
977.865
993.59
1013.95
1038.56
1067.55
1100.85
1138.81
1182.27
495.796
495.814
495.828
495.842
495.855
495.869
495.882
495.895
495.908
495.92
495.933
495.945
495.957
495.969
495.981
495.993
496.005
496.017
496.043
497.486
615.084
2534.65
5462.56
6544.59
6385.39
5748.31
5144.1
4639.95
4194.34
3875.19
3627.29
3457.71
3349.88
3293.89
3277.19
3294.14
3348.59
3434.75
3544.29
3702.77
3939.25
4276.23
4743.35
5371.26
6200.9
7276
8653.35
10521.9
12751
14649
15647.7
15446
13996.4
11864.8
9813.76
8252.15
7296.26
6596.81
5835.23
5023.18
4326.61
3803.02
3403.36
3060.38
2782.7
2562.29
2383.29
2239.82
2121.59
2021.33
1932.97
1851.93
1779.76
1713.89
1654.37
1598.91
1547.05
1500.99
1458.24
1418.79
1382.43
1348.2
1315.2
1285.1
1257.67
1232.74
1209.87
1188.19
1167.08
1146.96
1128.66
1110.96
1093.8
1078.14
1063.83
1051.32
1040.03
1030.4
1022.44
1016.02
1010.99
1006.89
1003.6
1000.87
998.63
996.893
995.632
994.777
994.649
995.263
996.469
997.676
998.398
999.943
1004.89
1013.49
1023.45
1034.38
1048.95
1067.96
1091.6
1120.21
1153.67
1192.09
1235.45
496.833
496.837
496.841
496.844
496.847
496.849
496.852
496.855
496.858
496.86
496.863
496.865
496.868
496.871
496.873
496.875
496.878
496.881
496.896
497.496
532.26
1393.51
4366.66
5366.94
5162.73
4894.96
4695.37
4290.85
3974.85
3733.33
3545.44
3385.77
3258.31
3215.71
3199.08
3219.16
3288.17
3430.83
3669.5
4039.05
4583.15
5318.81
6281.08
7575.39
9293.19
11425
13790.2
16047.9
18221.2
20112.7
21761.4
22936.6
22716.3
20785.1
17444.3
13747.7
11106.6
9129.09
7674.13
6636.11
5831.98
5179.92
4613.01
4055.01
3607.36
3258
2964.16
2719.18
2521.6
2363.86
2235.89
2127.99
2029.26
1938.25
1857.58
1786.09
1720.44
1659.93
1606.13
1559.51
1518.57
1480.73
1443.67
1409.4
1377.85
1348.81
1321.28
1294.42
1269.63
1246.22
1224.4
1204.23
1185.28
1167.6
1151.55
1135.53
1120.46
1106.86
1095.68
1086.45
1078.76
1072.51
1067.38
1063.47
1060.28
1057.59
1055.5
1053.76
1052.49
1051.73
1051.41
1050.48
1048.79
1047.83
1049.67
1054
1060.17
1067.43
1078.05
1093.21
1113.27
1138.66
1169.26
1204.5
1244.54
497.013
497.013
497.014
497.014
497.015
497.015
497.016
497.016
497.017
497.017
497.018
497.018
497.019
497.019
497.019
497.02
497.02
497.025
497.185
506.228
841.263
3168.66
4555.27
4243.7
3851.17
3590.87
3602.42
3850.51
3813.82
3624.13
3454.07
3337.55
3258.61
3194.99
3173.66
3236.14
3340.14
3558.67
3936.17
4489.17
5200.66
6137.43
7349.21
8882.97
10556.5
12423.2
14308.1
15949.4
17569.1
19482.5
21946.7
24968.2
27985.7
30495
30969.1
27212.3
21196.4
15900.1
11869.1
9229.76
7595.39
6495.11
5677.94
4992.37
4457.45
4031.25
3671.11
3358.31
3102.02
2871.14
2679.73
2508.69
2354.4
2223.09
2115.05
2019.96
1934.72
1855.66
1785.13
1723.89
1668.89
1619.83
1575.26
1534.18
1495.05
1459.45
1426.07
1396.12
1367.8
1340.28
1315.46
1293.76
1273.08
1254.23
1234.99
1216.64
1199.78
1185.42
1171.96
1159.67
1149.11
1140.13
1132.03
1125.61
1120.34
1115.85
1111.78
1107.97
1104.62
1101.29
1097.3
1092.69
1087.14
1083.29
1081.11
1080.38
1080.27
1081.42
1086.88
1096.74
1111.57
1132.26
1158.35
1189.06
1227.65
497.039
497.039
497.039
497.039
497.039
497.039
497.039
497.039
497.039
497.039
497.039
497.039
497.04
497.04
497.04
497.04
497.041
497.09
499.708
630.612
2178.62
4146.54
4031.77
3599.76
3221.34
2943.07
2799.84
2843.48
3099.58
3360.49
3316.1
3247.24
3216.04
3226.5
3243.81
3295.87
3446.74
3713.06
4102.82
4627.48
5279.49
6126.46
7113.44
8188.67
9383.36
10596.1
11614.9
12736.8
14456.8
16960.6
20532.9
25260.2
31229.9
37737.3
43361.7
43783.1
37459.8
27579.6
19516.2
13944.9
10489.5
8335.91
6964.1
5984.83
5246.88