/*--------------------------------*- C++ -*----------------------------------*\
| =========                 |                                                 |
| \\      /  F ield         | OpenFOAM: The Open Source CFD Toolbox           |
|  \\    /   O peration     | Version:  2112                                  |
|   \\  /    A nd           | Website:  www.openfoam.com                      |
|    \\/     M anipulation  |                                                 |
\*---------------------------------------------------------------------------*/
FoamFile
{
    version     2.0;
    format      ascii;
    arch        "LSB;label=32;scalar=64";
    class       volScalarField;
    location    "0.00609";
    object      p;
}
// * * * * * * * * * * * * * * * * * * * * * * * * * * * * * * * * * * * * * //

dimensions      [1 -1 -2 0 0 0 0];

internalField   nonuniform List<scalar> 
13875
(
951599
984300
973577
975938
973715
974579
975193
974968
975195
975203
975199
975002
974672
974778
974835
974679
974641
975334
975159
973950
973398
975634
972339
982744
945719
733802
659572
672185
677234
669260
669674
677101
678899
679374
679728
679730
678558
670269
669156
670405
678014
679288
679275
677528
669931
669556
676895
672224
657279
730978
736892
635528
664298
653591
649136
647987
648088
648157
646878
646537
647031
649080
645377
645307
645231
648895
646241
648292
648015
647736
648571
652150
661914
632223
733644
743536
636172
665180
653749
649444
648172
647038
645330
644352
643941
643101
644569
645410
645409
645260
644544
643511
644704
646253
647892
648856
652274
662662
632829
739173
757369
639179
667730
654456
650308
648671
647143
645402
644449
644067
643158
644601
645532
645673
645382
644575
643610
644780
646375
648338
649642
652866
664946
635469
750066
759053
647836
673491
656426
652119
649687
647501
645657
644729
644405
643376
644722
645798
646200
645645
644705
643900
645039
646780
649277
651325
654738
670529
643199
751647
765067
668346
685710
661338
655789
651720
648382
646275
645326
644938
643911
645084
646378
646798
646155
645016
644545
645756
647869
651341
654971
660342
682072
665883
755747
791262
718383
711633
674688
663584
656064
650577
647781
646609
646065
645062
645897
647531
648002
647241
645845
645868
647283
650134
655464
662359
673145
707097
715376
781755
908716
827954
766542
704373
679115
664609
655299
651020
649256
648420
647465
647815
649881
650439
649518
647889
648573
650499
654798
663569
677033
700925
760266
823204
909719
1.52416e+06
1.0296e+06
833786
739510
697519
674798
662182
656622
654260
653079
652251
652141
654579
655240
654263
652581
653717
656229
661940
674201
695921
736846
829473
1.02544e+06
1.51739e+06
2.90541e+06
1.3932e+06
958181
796806
725754
691344
674995
667554
664175
662446
661554
661041
663516
664370
663688
662454
663752
667016
674381
690218
722665
789421
940982
1.35126e+06
2.86087e+06
5.60402e+06
2.34611e+06
1.28963e+06
937613
790015
728843
702763
690777
684992
682061
680664
679886
681821
682971
683051
683218
685119
690337
702251
728330
787830
926516
1.2524e+06
2.27427e+06
5.57429e+06
5.38922e+06
4.84126e+06
2.31996e+06
1.40421e+06
982714
832382
771435
745770
733517
727545
724748
723521
724188
725736
727248
729949
735182
746666
772864
837672
992328
1.38671e+06
2.18416e+06
4.87759e+06
5.34299e+06
4.8392e+06
4.65001e+06
4.72416e+06
4.00445e+06
1.65136e+06
1.15284e+06
970350
898495
865701
849809
842384
839099
838069
840086
844373
853157
870846
906528
985679
1.20982e+06
1.847e+06
4.04525e+06
4.69273e+06
4.71615e+06
4.7634e+06
4.02804e+06
4.1315e+06
4.52349e+06
4.32536e+06
4.04298e+06
2.59082e+06
1.72502e+06
1.43098e+06
1.31495e+06
1.26099e+06
1.23893e+06
1.22971e+06
1.22702e+06
1.22914e+06
1.23771e+06
1.25973e+06
1.31184e+06
1.42919e+06
1.7184e+06
2.71002e+06
4.15602e+06
4.28543e+06
4.52956e+06
4.28256e+06
4.26248e+06
3.54556e+06
3.4868e+06
3.97213e+06
4.1406e+06
4.3883e+06
4.45365e+06
3.87129e+06
3.21766e+06
3.02121e+06
2.82918e+06
2.73236e+06
2.68434e+06
2.66884e+06
2.67521e+06
2.7086e+06
2.80382e+06
2.98115e+06
3.2028e+06
3.79133e+06
4.47889e+06
4.35849e+06
4.13276e+06
4.09257e+06
3.59095e+06
3.75926e+06
2.57948e+06
2.72792e+06
3.13483e+06
3.62086e+06
4.34731e+06
5.2878e+06
6.97859e+06
7.98731e+06
8.57692e+06
8.62027e+06
8.77841e+06
8.7576e+06
8.80527e+06
8.77244e+06
8.75588e+06
8.66588e+06
8.50937e+06
8.14165e+06
7.26096e+06
5.37287e+06
4.35642e+06
3.64909e+06
3.19053e+06
2.84093e+06
2.72792e+06
1.48106e+06
1.7834e+06
2.41259e+06
3.16403e+06
4.37554e+06
5.82812e+06
7.04672e+06
7.62846e+06
7.74962e+06
7.69378e+06
7.58443e+06
7.51793e+06
7.49899e+06
7.52205e+06
7.60069e+06
7.76483e+06
7.86904e+06
7.73083e+06
7.18078e+06
5.83385e+06
4.418e+06
3.19476e+06
2.29163e+06
1.67996e+06
1.38439e+06
709165
1.04684e+06
1.74284e+06
2.80856e+06
4.40914e+06
5.34045e+06
5.98417e+06
6.20347e+06
6.11584e+06
6.10571e+06
6.13533e+06
6.17542e+06
6.19951e+06
6.20131e+06
6.18252e+06
6.18108e+06
6.25474e+06
6.28488e+06
6.09979e+06
5.54795e+06
4.5195e+06
2.97186e+06
1.7739e+06
1.06156e+06
715765
380724
629269
1.19396e+06
2.42724e+06
3.88792e+06
4.36955e+06
4.61254e+06
4.87769e+06
5.06677e+06
5.25211e+06
5.40221e+06
5.48561e+06
5.50524e+06
5.48934e+06
5.3958e+06
5.23961e+06
5.05484e+06
4.85943e+06
4.60256e+06
4.38815e+06
3.95516e+06
2.55681e+06
1.24946e+06
639806
379507
894211
926105
1.20794e+06
1.9844e+06
3.00609e+06
3.34627e+06
3.63806e+06
4.01297e+06
4.33549e+06
4.59293e+06
4.76125e+06
4.8394e+06
4.85557e+06
4.82998e+06
4.73146e+06
4.54337e+06
4.27941e+06
3.94045e+06
3.565e+06
3.30457e+06
2.95851e+06
1.95232e+06
1.20872e+06
956604
918275
1.01409e+06
973142
1.1961e+06
1.62315e+06
2.20315e+06
2.54736e+06
2.97394e+06
3.40588e+06
3.74833e+06
3.99495e+06
4.14646e+06
4.21774e+06
4.23383e+06
4.20636e+06
4.11706e+06
3.94195e+06
3.68293e+06
3.3271e+06
2.87408e+06
2.47712e+06
2.16756e+06
1.56442e+06
1.18622e+06
997162
1.02852e+06
1.09571e+06
998592
1.15757e+06
1.33528e+06
1.69373e+06
2.02126e+06
2.50739e+06
2.92516e+06
3.23265e+06
3.45118e+06
3.58472e+06
3.65023e+06
3.6668e+06
3.63744e+06
3.55578e+06
3.39806e+06
3.16888e+06
2.86143e+06
2.42586e+06
1.9546e+06
1.66833e+06
1.3086e+06
1.14656e+06
1.00118e+06
1.0763e+06
1.3062e+06
1.08683e+06
1.11679e+06
1.16828e+06
1.42834e+06
1.7313e+06
2.13683e+06
2.5111e+06
2.78372e+06
2.9749e+06
3.08833e+06
3.15189e+06
3.1676e+06
3.14046e+06
3.06558e+06
2.92757e+06
2.72508e+06
2.45086e+06
2.07226e+06
1.67219e+06
1.3934e+06
1.13616e+06
1.07847e+06
1.04298e+06
1.21575e+06
1.36777e+06
1.19944e+06
1.11857e+06
1.10741e+06
1.27782e+06
1.52955e+06
1.83871e+06
2.14824e+06
2.38272e+06
2.55695e+06
2.66649e+06
2.72237e+06
2.73777e+06
2.71069e+06
2.64799e+06
2.52505e+06
2.34402e+06
2.10023e+06
1.799e+06
1.48042e+06
1.24448e+06
1.06695e+06
1.07412e+06
1.12051e+06
1.31243e+06
1.44221e+06
1.31458e+06
1.12758e+06
1.09737e+06
1.18828e+06
1.37636e+06
1.6096e+06
1.85834e+06
2.05791e+06
2.20908e+06
2.30723e+06
2.35736e+06
2.37067e+06
2.34749e+06
2.28886e+06
2.18224e+06
2.02627e+06
1.8197e+06
1.57791e+06
1.34313e+06
1.15423e+06
1.05228e+06
1.07897e+06
1.20277e+06
1.39544e+06
1.47792e+06
1.37162e+06
1.13905e+06
1.09744e+06
1.13202e+06
1.25573e+06
1.42223e+06
1.62019e+06
1.78546e+06
1.91315e+06
2.0005e+06
2.04357e+06
2.05845e+06
2.03527e+06
1.98464e+06
1.89221e+06
1.75949e+06
1.58657e+06
1.3981e+06
1.22461e+06
1.09624e+06
1.05167e+06
1.09344e+06
1.29648e+06
1.449e+06
1.5323e+06
1.4346e+06
1.1615e+06
1.09432e+06
1.08707e+06
1.15433e+06
1.27492e+06
1.42742e+06
1.5597e+06
1.66548e+06
1.73888e+06
1.78003e+06
1.7937e+06
1.77659e+06
1.73152e+06
1.654e+06
1.54547e+06
1.40593e+06
1.25284e+06
1.13109e+06
1.05042e+06
1.05171e+06
1.11452e+06
1.39773e+06
1.52162e+06
1.64431e+06
1.53884e+06
1.19529e+06
1.08429e+06
1.05487e+06
1.0743e+06
1.14931e+06
1.26787e+06
1.37415e+06
1.46081e+06
1.52253e+06
1.55537e+06
1.56951e+06
1.55329e+06
1.51607e+06
1.44949e+06
1.35872e+06
1.24883e+06
1.13475e+06
1.05096e+06
1.02312e+06
1.04636e+06
1.13787e+06
1.46009e+06
1.57526e+06
1.72536e+06
1.6419e+06
1.22526e+06
1.06745e+06
1.02124e+06
1.01862e+06
1.05619e+06
1.14035e+06
1.21975e+06
1.2896e+06
1.34021e+06
1.36957e+06
1.37973e+06
1.36725e+06
1.33404e+06
1.28072e+06
1.20873e+06
1.12283e+06
1.03546e+06
990625
991601
1.03417e+06
1.18127e+06
1.58152e+06
1.67156e+06
1.7433e+06
1.70708e+06
1.25909e+06
1.0558e+06
981970
968128
976927
1.02847e+06
1.08829e+06
1.14427e+06
1.18644e+06
1.20919e+06
1.21885e+06
1.20777e+06
1.18296e+06
1.13832e+06
1.07993e+06
1.01689e+06
960064
947143
959338
1.02804e+06
1.2247e+06
1.71943e+06
1.78181e+06
1.77073e+06
1.73593e+06
1.31668e+06
1.05585e+06
947293
916366
911885
944975
985585
1.02758e+06
1.05737e+06
1.07719e+06
1.08332e+06
1.07564e+06
1.05372e+06
1.02048e+06
975667
931708
896662
899624
925181
1.02799e+06
1.27349e+06
1.77511e+06
1.80362e+06
1.78504e+06
1.73482e+06
1.36798e+06
1.05757e+06
921973
870357
858633
869035
894862
926614
949980
963038
968431
960695
945109
919060
886955
858924
844756
854563
902777
1.03124e+06
1.33909e+06
1.7748e+06
1.80304e+06
1.78415e+06
1.73171e+06
1.47407e+06
1.06658e+06
893931
826761
807666
807638
819432
840735
856899
868246
871286
866672
853703
836317
814440
797762
797449
813913
874689
1.03752e+06
1.43893e+06
1.75986e+06
1.79959e+06
1.78227e+06
1.72455e+06
1.54814e+06
1.08989e+06
882396
796630
762091
753134
753376
767033
778818
785688
788401
784182
775272
762127
747226
745354
752007
782786
862681
1.05531e+06
1.53015e+06
1.73261e+06
1.79219e+06
1.77594e+06
1.69834e+06
1.54826e+06
1.11172e+06
882596
763221
717871
705102
701028
705151
711538
716910
718298
715733
708288
701063
695130
696870
708502
750808
863028
1.09183e+06
1.55983e+06
1.67766e+06
1.7771e+06
1.76118e+06
1.64612e+06
1.54567e+06
1.15816e+06
888299
744562
683143
659069
651024
650159
653756
656324
657347
655221
650873
646361
646666
654484
674934
731913
866478
1.13601e+06
1.55638e+06
1.6187e+06
1.75151e+06
1.72976e+06
1.58315e+06
1.54013e+06
1.2499e+06
904677
728230
650755
621840
609486
605121
603955
605798
605829
604596
601896
602495
605510
615045
641787
714802
878508
1.22188e+06
1.54946e+06
1.5681e+06
1.7006e+06
1.68058e+06
1.54306e+06
1.51718e+06
1.3779e+06
924671
728516
631530
588916
569977
563055
561545
560798
560415
558756
559428
560055
566193
584968
623231
715396
910809
1.39774e+06
1.53427e+06
1.53379e+06
1.62581e+06
1.61487e+06
1.5097e+06
1.4716e+06
1.37686e+06
968168
734009
611394
560254
537788
528353
523699
523063
521764
521782
522349
526364
534786
555026
604314
719119
951932
1.39558e+06
1.49696e+06
1.49925e+06
1.58127e+06
1.55157e+06
1.47703e+06
1.39251e+06
1.37083e+06
1.05453e+06
750792
610347
541815
509289
495580
491356
488107
487189
487214
489427
493243
506039
537781
604336
732012
1.03374e+06
1.38692e+06
1.42186e+06
1.46893e+06
1.54456e+06
1.5121e+06
1.44585e+06
1.32316e+06
1.34642e+06
1.2107e+06
774321
612623
528101
487610
470856
462280
459227
457725
458870
461172
468927
483399
520382
608389
763295
1.20511e+06
1.36457e+06
1.34426e+06
1.43696e+06
1.50656e+06
1.47148e+06
1.41643e+06
1.27176e+06
1.29642e+06
1.2095e+06
824660
622750
528399
471363
446233
437406
432334
431192
431923
436135
444315
467661
520204
615669
807550
1.20431e+06
1.31317e+06
1.27815e+06
1.41346e+06
1.47921e+06
1.42867e+06
1.38228e+06
1.23396e+06
1.22342e+06
1.19851e+06
926339
646027
531310
463310
431499
415852
410903
408542
410435
415035
429572
459128
521948
635519
895108
1.1941e+06
1.22195e+06
1.22674e+06
1.39175e+06
1.44333e+06
1.39676e+06
1.34762e+06
1.20411e+06
1.15977e+06
1.16496e+06
1.04825e+06
682809
537236
463526
418423
399235
390349
388291
389539
397707
414393
459393
530907
680339
1.07469e+06
1.16926e+06
1.15541e+06
1.1931e+06
1.35512e+06
1.40035e+06
1.35917e+06
1.31502e+06
1.18519e+06
1.10959e+06
1.09738e+06
1.04272e+06
761283
555945
466667
418424
388295
375983
371820
375125
386517
411381
461280
548930
760832
1.06839e+06
1.11519e+06
1.10121e+06
1.17229e+06
1.31614e+06
1.36701e+06
1.3142e+06
1.27126e+06
1.16859e+06
1.06858e+06
1.03359e+06
1.02543e+06
920654
595130
476502
419393
384308
365414
359980
364271
382843
412045
468493
585082
925662
1.04691e+06
1.04935e+06
1.06318e+06
1.15685e+06
1.27635e+06
1.32191e+06
1.26984e+06
1.23482e+06
1.15186e+06
1.04141e+06
984083
984880
918421
666863
496500
421894
384621
363712
352721
362126
383268
416124
489399
663378
924605
1.00004e+06
997667
1.03333e+06
1.14178e+06
1.23327e+06
1.26626e+06
1.18055e+06
1.17719e+06
1.12542e+06
1.02171e+06
942674
930186
908695
814817
540476
431223
386912
364115
353076
362485
385016
426368
531560
817355
912292
935495
952494
1.01489e+06
1.11916e+06
1.1757e+06
1.16977e+06
1.0477e+06
1.10023e+06
1.07543e+06
1.00187e+06
917447
883184
883395
814053
632021
453535
394378
366203
355008
364387
391630
449646
618383
816187
881728
881130
920921
993617
1.0742e+06
1.10224e+06
1.04099e+06
125642
134795
135753
139766
139840
139048
137190
133754
132970
131242
128659
126675
124810
122828
120879
118684
116889
114976
111875
105652
87893.9
75852.3
68483.8
64816.2
63475.9
62899.8
62894.4
63391.6
64019.4
64442.9
125228
134362
135356
137790
137300
136434
135107
132958
132832
131509
128778
126713
124736
122831
120936
118922
117247
115680
113079
107630
94120.8
78565.9
69425.6
63893
62022.2
61285.1
61199.3
61754.4
62539
63067
126178
134509
134689
136898
136829
136175
135298
133230
132381
130161
127940
126089
124370
122816
121096
119203
117627
116408
114237
109882
101331
82427
70583.5
63696.6
60587.3
59792.4
59670.1
60271.8
61156.1
61891.6
128498
134303
134225
136336
135752
134902
133372
130992
129834
129281
127584
125843
124261
122969
121450
119852
118203
116981
115085
111219
104943
89950.9
72639.3
63836.8
59525.3
58514.1
58354.7
58963.4
59969
60849.6
129992
134447
134240
136152
134937
134312
132435
129578
126618
127448
126313
124907
123968
123077
121911
120643
118908
117806
115864
112298
107132
98300.2
77074.1
64770.6
59330.4
57413.5
57252.9
57884.9
58775.4
59304.1
130655
134494
134138
134794
134171
132916
130014
124617
124848
123677
123871
123913
123827
123392
122614
121567
120014
118934
117060
113679
108046
101906
87155.4
67370.8
59597.1
56590.3
56306.5
56694.8
57049.1
57289.5
130936
133222
133080
133384
132668
130547
125831
120976
121200
120373
121582
123267
123782
123656
123289
122714
121469
120186
118727
115756
109003
104301
95653.6
73261.4
60886.6
56454.9
55165.4
55198.8
55829.1
56275.8
131018
132607
132270
132137
131193
128672
123326
119200
118528
118535
120128
123044
123987
124091
124018
123739
123052
121862
120539
117819
111849
105239
99249.3
86264.2
64232.9
56740.1
54665.3
54507.8
55304
55951.7
130945
132463
131883
131513
128957
125752
121592
115898
115995
116906
119638
123569
124333
125076
125089
124997
124685
124005
122819
120577
115979
106767
102653
95193.5
74650.3
58655
54681.4
54342.1
55262.1
55929.3
131352
132441
131756
131344
127959
122821
118350
113421
114012
116215
119965
124145
124560
125701
126670
126543
126333
125970
125223
123743
120462
111941
104428
100360
91839
65274.3
56168.7
54421.2
55490.5
56311.7
131833
132615
131748
131337
127615
121504
116378
112237
113073
116133
119620
124198
124531
125823
127614
127896
127854
127683
127452
126874
125003
119730
107581
103194
98329.3
83556.3
60594.9
54481.9
52945
53165.3
132537
133080
132113
131656
127554
121056
115512
111859
112753
116318
119648
124173
124452
126065
128116
128934
129021
129008
128930
128536
127054
122649
111835
104973
101282
94582.2
70937.7
55412.3
51087.1
49290.4
133319
134120
132764
132562
128237
120965
115366
111896
113203
117163
120679
124174
124426
126333
128496
129504
129941
129925
129828
129401
128059
124389
115490
106029
102268
98520.7
89091.3
59352
50851.9
47839.2
134193
135642
134112
133025
128636
120979
115396
113300
115125
118897
121111
124132
125050
127188
128788
130011
130878
130822
130621
130027
128653
125343
116777
107140
102674
99796.5
94509.6
77146.2
52827
47742.3
135671
137623
135128
133242
128799
120756
116086
114759
116340
119584
122129
123762
126080
127872
129712
131050
131778
131746
131630
131241
130023
126465
117112
108166
103031
100217
96849.9
88979.8
62670.7
49389.8
136773
138621
135598
133319
128675
120525
116573
115667
117727
120396
122437
123740
126473
128198
130063
131102
131883
131901
131815
131489
130415
126854
117182
108644
103713
100457
98122.5
94471
82282.6
56247.6
138240
138991
135737
133122
127709
120004
117179
116750
118588
120761
122317
124680
126961
128290
130054
131027
131873
131961
131903
131601
130535
126976
117069
108974
104270
100817
98955
98179.8
97117.6
80030.1
139048
139051
135662
132712
126171
119465
117467
117227
118833
120919
122532
125051
127120
128281
129443
130851
131854
132005
131962
131624
130156
126812
116875
109293
104670
101594
100594
101708
106719
136018
139253
138906
135243
131540
124155
119035
117541
117297
118862
120695
122555
125136
127140
127329
129308
130855
132338
132418
132280
131856
130219
125449
116101
109714
105550
103428
104112
107389
120109
187755
139805
138355
134105
129320
122083
118642
117400
117096
118445
119860
121986
125039
126721
126757
129274
131500
132722
132680
132560
131984
130137
124709
115951
110396
107153
107116
108300
115265
135965
205098
137835
135517
131486
125698
120362
117965
116983
116786
118181
119419
121693
124862
126377
126807
130143
131918
132831
132763
132583
132075
130019
123633
116091
111497
110026
110505
113742
125471
164323
208864
136358
132974
127841
122112
118458
116802
116158
116125
117316
118354
121237
124387
125575
126677
130547
132192
132840
132771
132593
132049
129532
122847
116519
113270
113525
114727
120346
138868
191760
208881
131187
126911
122095
118040
116056
115093
114675
115305
115944
116852
119947
122878
125174
126577
130717
132313
132857
132802
132602
131420
128131
122341
117290
116334
116736
119518
128933
158379
200429
204778
127189
122971
117141
114502
113395
113144
113079
113923
114111
115026
118530
121558
124811
126608
130817
132357
132753
132641
132201
130532
126221
122092
118963
119342
120584
125270
139982
189447
201537
196143
113425
113426
111235
110553
110317
110595
110682
111605
112057
113366
117226
120510
124638
127282
130843
132006
132057
131734
130647
127824
125124
122784
121584
121984
124388
132105
152392
200308
200509
192463
64190.5
63802.6
63214.6
62809.6
62889
63524.8
64946.4
68837.6
76496.5
89829.1
106109
111731
114371
116191
118051
120240
122163
124128
125885
127769
130362
132124
132843
136381
137973
138633
138660
134787
133895
124981
62739.4
62266.2
61552.9
61126.4
61280.2
62098.7
64158.7
69857.2
79306.9
95932.4
107551
112518
115023
116517
118251
120233
122152
124068
125934
127884
130646
131930
131958
133807
135044
136070
136800
134397
133497
124542
61464
60811.9
60049.2
59593.4
59789
60686.3
64024.1
71130.1
83404.2
102211
109742
113465
115402
116782
118464
120278
122099
123587
125262
127044
129616
131839
131918
133817
134962
135800
135851
133716
133654
125312
60370.2
59584.9
58715.9
58266.7
58503.6
59659
64201.4
73303.2
91501.8
105055
110817
114206
115922
117335
119029
120627
122124
123386
124988
126741
128283
128187
130136
132391
134033
134964
135416
133282
133454
127685
58915.7
58410.1
57611.6
57152.7
57392
59479.9
65180.4
77848.1
98610.8
106988
111722
114989
116727
117986
119769
121105
122192
123145
124011
125153
126365
125916
128543
131836
133627
134173
135218
133332
133476
129082
56886.1
56715.6
56447.6
56205.8
56569
59750.3
67767.9
87700.8
101837
107851
113144
116107
117858
119033
120704
121751
122483
122917
123013
122564
121873
123334
123175
129168
132264
133550
133975
133139
133453
129680
55856.5
55483.6
54970.6
55099
56441.7
61037.9
73510.3
95596.9
104162
108767
115038
117804
119183
120530
121724
122348
122713
122841
122250
120289
119079
120124
120309
125397
129979
132117
132760
132112
132271
129936
55530.9
54956.6
54290.6
54566.9
56720
64252.5
85839.8
98989.9
105053
111494
117105
119662
120923
122171
122772
123043
123151
122872
121940
118898
117203
117483
118825
123576
128510
130878
131647
131475
131700
129997
55516.3
54920.6
54131.3
54557.1
58494.2
73616.7
94705.3
102325
106578
115623
119910
121980
123116
123764
124051
124173
124252
123236
122319
118484
115626
114760
114926
121319
124963
128608
131148
131186
131561
129915
55927.7
55147.4
54189
55904.2
64542.8
90786.1
99801.8
104200
111692
119795
123068
124497
125173
125479
125577
125570
124504
123314
122832
118795
114929
112875
112593
117428
122075
127544
131072
131111
131536
130165
52994.7
52746.7
54146.6
59970.2
81568.1
97456.3
102744
107248
119393
124480
126154
126748
126954
126995
126991
126696
124745
123276
122925
118798
114924
111960
111494
115559
120755
127137
131194
131127
131669
130438
49098.7
50825.6
54974.9
69121.8
93514.8
100665
104597
111866
122463
126636
127985
128275
128325
128344
128202
127243
125173
123289
123013
119034
115326
111678
111141
114756
120305
127055
132004
131849
132087
131022
47629.7
50550.2
58488.2
87742.4
97762.6
101795
105878
116735
124547
127786
128951
129309
129366
129365
128831
127650
125799
123534
123268
120120
116455
112230
111249
114629
120211
127463
132666
132657
133075
131812
47503.9
52344.2
75277.9
93587.3
99186
102284
107076
118739
125930
128502
129545
129935
130028
130040
129368
128563
126887
124865
123352
120501
118103
114259
112549
114653
120223
127799
132997
133947
134460
132818
49007.7
61362.4
87988.6
96161.3
99695.6
102749
108826
119367
127155
129564
130216
130483
130561
130566
129914
128832
127283
125144
123206
121469
118760
115486
113886
115268
120092
127954
133140
134902
136537
134323
55437
80397.6
93574.8
97493.2
100005
103668
109447
119404
127555
130530
131201
131259
131262
130960
130218
129006
127604
125879
123447
121795
119627
116704
114851
115807
119792
127920
133187
135331
137614
135528
77897.6
95929.8
97388
98353
100519
104583
109923
119046
127650
130909
131894
132111
132141
131459
130365
129016
127722
126305
124358
121798
120008
117759
116010
116470
119406
127106
132754
135447
138015
137108
133542
105870
101105
100073
101546
105301
110218
118674
127682
130990
132116
132452
132515
131968
130385
128791
127625
126475
124721
122090
120141
118147
116529
116778
118819
125495
132163
135159
138068
138130
185406
119055
106772
103944
103361
106100
110678
118089
127339
130862
132092
132538
132640
132430
130496
128716
126654
126512
124815
122137
120034
118224
116615
116859
118381
123542
130833
134488
137818
138460
202796
134765
114803
108136
107045
107476
111403
117634
126033
129961
131628
132410
132667
132617
131114
128741
126486
126010
124493
121593
119040
117841
116549
116853
118071
121467
128552
133117
137217
139022
206633
162945
125038
113761
110730
110258
112491
117496
124955
129804
131678
132318
132552
132656
131386
129653
126425
125602
124158
121292
118254
117269
116178
116378
117342
119717
124991
130427
134748
137427
206669
191043
138590
120510
115096
114047
114088
117884
124166
129518
131624
132210
132372
132414
131460
130070
126259
125104
123450
120659
117124
115930
115483
115560
116214
117879
121578
126946
132341
135872
202510
199938
157623
129285
120159
117383
117007
118586
123506
128707
131134
131924
132146
132231
131521
130252
126232
124845
121962
119366
115868
114249
114337
114225
114600
115531
117626
121912
126829
130590
194429
201059
189577
140479
126033
121449
120313
119918
123321
126580
129992
131392
131797
131930
131555
130362
126347
124544
120681
118092
114288
112418
112511
112674
113132
113286
114174
116899
122925
126440
191259
200037
200795
152987
133137
125445
122882
122421
123388
125734
128722
130570
131335
131593
131498
130394
126838
124381
119785
116972
113032
110364
110242
110403
110500
110386
110428
111079
113911
112359
420144
413010
408288
399956
389659
377527
364015
350638
337398
324834
312590
301162
288112
282104
280366
280177
280502
283374
290184
300545
312888
327349
342246
357192
370761
383068
393791
402985
410784
417274
422899
427849
432078
435190
437397
439757
442988
442951
442211
439645
433802
426626
419086
412159
407715
406294
404376
400939
396189
389369
381323
373829
368590
365376
362572
359360
354841
350302
345722
340540
334708
329024
323806
318529
313796
310160
307255
305272
304226
302972
301975
300443
299351
298679
297643
295860
291959
286995
280716
274204
267677
261232
255020
249199
243880
239098
234822
231002
227582
224493
221685
219165
217026
215356
214156
213348
212784
212277
211574
210393
208545
205997
202797
198915
194838
191025
187557
184569
181906
179607
177466
176064
175725
175728
175838
176282
177486
180030
182802
185375
187996
189174
189481
189729
190140
421213
414032
409128
403515
397436
390839
383382
374435
364838
354927
344804
334413
325510
322176
320780
319927
319586
319680
321260
325762
331722
338378
347651
358348
369237
379732
389652
398906
406619
413040
417791
420413
422214
424069
426385
429119
432066
435483
436686
434458
430186
421851
411515
402644
396515
392596
389472
386028
381650
375214
368001
362814
359811
358359
357503
356358
354287
350847
346085
341037
336057
330660
325304
320158
315766
312148
308853
305689
303042
299901
296967
294538
292710
291145
289200
286306
282233
277084
271592
266020
260422
254864
249441
244255
239383
234851
230642
226734
223139
219891
217020
214539
212459
210756
209332
208023
206731
205441
204140
202690
201040
199188
197143
194934
192635
190439
188556
187229
186539
186369
186275
186132
185657
184614
181539
179440
178868
178888
178972
179131
179416
179962
181245
184740
192727
420557
412762
407565
403291
399262
394914
390391
385018
379427
373708
367908
362119
356511
352195
349229
347178
344595
343594
343528
344272
346819
349942
355313
362656
370820
379692
388934
398525
408372
417582
424619
428067
428454
427143
425949
425488
425680
426054
425629
424770
421671
416629
407792
398041
390093
385688
383243
380812
377094
371810
365845
361090
357939
355734
353641
351464
349796
347968
345423
342851
340365
337549
333710
329100
324256
319412
315090
310611
306772
303105
299311
295849
292729
289257
285267
280913
275951
270499
264975
259531
254217
249046
244009
239107
234363
229826
225568
221659
218144
215058
212424
210223
208407
206927
205724
204761
203874
203025
202328
201641
200695
199827
199321
198821
197925
196595
194887
193055
191313
189843
188128
185774
183355
181390
180228
180089
180105
180209
180621
181799
184407
189788
199670
203289
203240
432620
424471
418518
413320
407888
402692
398220
393433
388440
383508
378504
373430
368789
364183
360414
357821
355068
353333
352350
351283
351961
353148
355541
359615
363937
368412
372942
377825
383463
390516
399657
409049
417244
422070
423782
423142
421604
419484
416888
413610
409526
404413
397900
390148
382987
377152
372614
368486
364661
361014
357464
354251
352153
350919
349973
349080
348155
346963
345226
343049
340919
338704
336565
334189
331318
328702
326055
322686
318085
312576
306663
301086
296041
291453
286564
281328
275456
269018
262742
256814
251239
245992
240991
236157
231441
226895
222643
218802
215437
212559
210137
208095
206332
204814
203608
202806
202311
201983
201987
202006
202117
202352
203197
203310
203193
202763
200025
193594
188422
183917
180196
177784
176894
176847
176877
177122
178155
180930
186782
198720
202908
203254
202247
195020
173113
450763
441966
435923
428961
422439
416023
410530
404630
399132
393798
388522
382142
376233
371081
366501
363222
360064
358038
356074
354527
354479
355041
356380
358595
361721
364452
366359
368496
369754
372616
375934
381880
387985
394661
401340
406328
409106
409484
407734
405288
401230
395889
389527
382814
375851
369273
363439
358386
354337
351283
349154
347686
346900
346756
346656
346555
346400
345973
345192
344222
342725
341179
339232
336669
334345
332848
331580
329579
326345
322015
316851
311326
305565
299282
292859
285816
278506
271238
264206
257703
251708
246219
241114
236247
231514
226934
222651
218802
215454
212582
210109
207914
205949
204184
202673
201541
200896
200743
200785
200916
200990
201037
200795
199739
195952
192161
188297
185358
183580
182844
182813
182902
183315
184497
187250
192758
204234
209782
211236
210589
205552
188799
163323
151044
140633
471319
462998
458703
452791
447043
440041
432120
421730
414141
407213
400646
394263
388173
382410
377142
373021
369957
367823
366083
364687
363720
363125
362731
362687
362922
363668
364972
364995
364635
362826
361293
360345
361958
365336
370835
377570
384022
389434
392968
393576
391791
388024
382678
376391
369976
363476
357302
351892
347601
344718
343119
342492
342735
342932
343421
343875
344138
344091
343898
343460
342637
341428
339488
337395
335356
333017
330745
328438
325477
321608
316785
311364
305837
300253
294298
287677
280716
273649
266560
259784
253357
247428
241923
236708
231738
227049
222725
218869
215512
212553
209818
207174
204655
202289
200122
198266
196953
195926
194653
193175
191569
189659
187580
185555
184250
184068
184077
184148
184444
185340
187541
192152
201676
207633
211504
212768
212546
209867
198909
173765
161049
149881
141309
135061
129542
481069
473193
469482
464228
459449
452309
445433
436977
428849
420782
413245
405853
398773
392256
386376
381733
378394
376101
374538
373509
372808
372355
372051
371387
370050
368038
365856
363925
362026
358111
354005
349694
349340
349937
352235
356444
362205
368619
376427
379832
379662
378280
375174
370529
364823
359117
353542
348630
344779
342073
340769
340247
340411
340731
341411
342094
342544
342609
342534
342276
341665
340529
338514
336513
333847
330065
324967
319184
313551
307652
300956
293855
287070
281156
276182
271799
267765
263774
259617
255056
249973
244630
239417
234453
229747
225180
220920
216987
213418
210020
206539
202629
198524
194780
191337
188213
185772
184027
182731
181765
181315
181285
181344
181616
182555
184782
188004
191285
196574
204763
209638
212019
212477
212244
209340
198353
175292
164590
156176
148406
142042
136173
132189
128584
125824
491908
482278
477478
471346
465210
458881
451574
443936
436309
428712
420954
413669
406905
400612
394980
390260
386809
384635
383509
382984
382592
382016
381211
380175
378036
374475
371012
366152
360868
355488
349687
344313
342670
342316
342383
343925
347147
352032
360661
365829
366649
366492
365377
363004
359499
355292
351318
347689
344977
342839
341754
341463
341498
341787
342176
342892
343007
342932
342620
341813
340668
339006
336832
334061
330467
325959
320503
314193
307312
300100
292705
285085
277773
271005
264744