/*--------------------------------*- C++ -*----------------------------------*\
| =========                 |                                                 |
| \\      /  F ield         | OpenFOAM: The Open Source CFD Toolbox           |
|  \\    /   O peration     | Version:  2112                                  |
|   \\  /    A nd           | Website:  www.openfoam.com                      |
|    \\/     M anipulation  |                                                 |
\*---------------------------------------------------------------------------*/
FoamFile
{
    version     2.0;
    format      ascii;
    arch        "LSB;label=32;scalar=64";
    class       volScalarField;
    location    "0.00609";
    object      T;
}
// * * * * * * * * * * * * * * * * * * * * * * * * * * * * * * * * * * * * * //

dimensions      [0 0 0 1 0 0 0];

internalField   nonuniform List<scalar> 
13875
(
1412
1535.58
1482.41
1487.7
1482.08
1483.91
1484.6
1484.02
1484.54
1484.56
1484.51
1484.14
1483.52
1483.9
1483.85
1483.81
1483.46
1484.73
1484.89
1483.11
1481.91
1487.67
1480.56
1533.26
1398.48
1307.02
1356.17
1318.92
1322.13
1316.64
1317.98
1322.31
1322.93
1323.87
1324.07
1323.89
1323.18
1318.05
1317.65
1318.37
1322.74
1322.96
1323.42
1322.27
1317.81
1316.7
1321.86
1319.57
1356.55
1303.14
1307.23
1340.06
1314.28
1311.8
1305.26
1305.55
1305.59
1305.29
1304.95
1305
1305.04
1305.96
1303.75
1304.03
1303.91
1305.75
1303.91
1305.97
1306.1
1305.15
1304.89
1311.02
1311.39
1336.1
1296.49
1317.37
1344.8
1314.66
1308.57
1306
1305.66
1304.87
1303.2
1303.57
1303.68
1302.77
1303.58
1303.86
1304.08
1304.05
1303.44
1302.44
1303.48
1304.24
1305.54
1305.37
1307.69
1313.93
1343.53
1311.75
1329.53
1342.12
1315.73
1312.42
1304.93
1305.95
1304.94
1303.43
1303.61
1303.85
1302.87
1303.32
1303.68
1304.21
1303.83
1303.27
1302.51
1304.01
1305.28
1304.97
1304.8
1311.73
1311.98
1338.5
1316.31
1332.21
1351.14
1318.82
1309.77
1307.97
1306.47
1304.85
1303.13
1303.86
1303.92
1302.95
1303.69
1304.12
1304.48
1304.31
1303.55
1302.65
1303.53
1304.3
1306.5
1307.29
1308.41
1318.95
1349.16
1326.72
1339
1360.47
1329.04
1317.51
1307.99
1307.5
1305.75
1303.79
1304.4
1304.24
1303.27
1303.64
1304.21
1304.86
1304.25
1303.58
1303.2
1304.6
1306.25
1306.71
1307.85
1317.62
1325.67
1358.2
1321.76
1359.75
1384.69
1344.04
1321.05
1316.45
1310.32
1306.61
1304.8
1305.16
1304.92
1303.86
1304.42
1305.13
1305.63
1305.26
1304.19
1303.81
1304.97
1306.23
1309.98
1315.24
1320.37
1341.41
1381.03
1350.2
1537.26
1508.48
1387.17
1350.86
1322.01
1315.84
1309.99
1306.83
1307.36
1306.72
1305.46
1305.57
1306.3
1307.03
1306.47
1305.76
1305.76
1307.35
1310.59
1314.36
1321.44
1349.31
1382.94
1505.86
1520.98
1835.05
1574.39
1427.14
1358.49
1338.51
1320.91
1314.31
1310.58
1310.25
1309.59
1308.39
1308.36
1309.15
1309.85
1309.52
1308.87
1309.11
1311.2
1314.43
1320.79
1336.83
1356.99
1424.45
1566.42
1826.52
2507.29
1804.89
1518.45
1409.94
1350.27
1331.57
1326.06
1318.71
1317.21
1315.83
1314.19
1313.85
1314.59
1315.46
1315.41
1315.3
1315.79
1318.24
1326.6
1330.59
1349.23
1417.15
1503.25
1799.34
2430.33
2812.76
2302.16
1737.54
1463.03
1421.66
1363.29
1340.56
1333.04
1330.77
1328.57
1326.63
1326.12
1326.58
1327.48
1327.71
1328.43
1329.66
1333
1341.07
1370.53
1406.13
1456.27
1726.39
2304.78
2837.9
2787.06
2657.06
2356.88
2213.35
1528.64
1416.74
1398.69
1376.59
1367.41
1361.37
1357.3
1356.1
1355.95
1356.93
1358.1
1361.5
1367.53
1377.59
1404.01
1424.51
1570.14
2244.71
2256.53
2683.86
2767.03
2723.22
2662.05
2750.1
2766.5
2050.22
1855.25
1533.82
1490.97
1471.04
1459.66
1452.88
1451.08
1450.82
1451.69
1453.51
1459.23
1471.58
1491.25
1546.53
1919.15
2108.6
2780.91
2789.99
2704.17
2701.48
2584.19
2641.5
2693.32
2698.21
2606.66
2386.68
2091.79
1971.79
1898.81
1804.75
1764.09
1749.5
1745.78
1747.7
1756.8
1789.3
1885.3
1991.02
2012.12
2432.11
2644.49
2731.54
2690.53
2646.3
2625.7
2502.99
2540.83
2643.6
2705.19
2685.23
2731.91
2873.12
3024.9
3193.72
3189.4
3287.09
3292.91
3313.38
3301.12
3282.51
3205.95
3083.27
3085.13
2893.94
2738.7
2685.83
2726.82
2646.21
2562.98
2534.56
2322.7
2411.34
2482.59
2528.4
2631.4
2792.48
3063.21
3410.69
3616.35
3686.84
3689.46
3680.68
3676.1
3681.78
3693.55
3704
3640.45
3487.66
3105.61
2808.92
2656.56
2563.56
2479.78
2405.38
2336.49
2038.31
2166.07
2345.54
2663.17
2761.61
2843.21
3018.81
3391.87
3597.54
3662.47
3672.06
3666.85
3661.86
3668.13
3676.07
3672.54
3582.6
3411.13
3010.25
2842.33
2764.35
2640.99
2297.25
2154.88
2036.71
1823.9
1884.1
2016.05
2337.87
2764.59
2854.37
2921.83
3128.72
3349.21
3471.43
3510.57
3520.79
3522.37
3524.68
3517.41
3484.17
3384.24
3161.46
2942.16
2918.94
2793.68
2347.02
2010.08
1905.31
1826.23
2464.69
2344.54
2064.42
2207.6
2567.22
2683.4
2693.43
2856.53
3085.38
3279.59
3377.63
3407.9
3411.78
3409.51
3379.35
3284
3102.02
2877.08
2704.91
2700.46
2579.07
2233.05
2095.8
2393.2
2500.76
3251.96
3281.63
2674.43
2257.52
2420.16
2506.92
2528.8
2676.59
2901.32
3120.96
3249.5
3293.03
3297.18
3290.92
3243.27
3112.01
2901.27
2668.76
2521.05
2509.28
2402.55
2236.3
2729.85
3349.32
3205.25
3502.41
3469.24
2636.55
2138.42
2237.36
2340.31
2397.68
2531.98
2755.74
2981.43
3120.78
3169.63
3177.86
3166.55
3110
2963.75
2740.8
2523.91
2392.05
2334.43
2221.12
2128.97
2639.83
3434.51
3426.14
3440.03
2946.47
2374.62
1976.06
2089.41
2207.02
2299.61
2425.41
2630.26
2846.44
2992.33
3049.65
3055.75
3044.65
2982.04
2831.65
2623.3
2422.22
2285.35
2198.89
2073.5
1958.3
2375.32
2945.86
3412.92
3454.74
2754.88
2128.39
1849.38
2001.01
2114.24
2198.61
2327.68
2525.08
2733.94
2871.29
2926.19
2937.87
2922.93
2864.41
2722.81
2515.3
2321.69
2196.16
2103.95
1985.21
1835.63
2118.79
2693.31
3359.86
3339.75
2602.45
1997.68
1790.51
1955.17
2042.09
2120.72
2243.79
2429.99
2626.59
2761.65
2817.47
2823.03
2811.61
2750.42
2609.91
2420.9
2236.86
2111.17
2040.67
1934.85
1767.34
1977.63
2558.65
3279.47
3300.16
2546.52
1953.09
1791.55
1924.07
1984.53
2038.47
2162.88
2342.37
2530.54
2654.42
2703.73
2715.76
2699.64
2647.65
2522.78
2336.41
2157.25
2041.69
1980.7
1912.85
1768.33
1919.26
2464.13
3189.98
3204.65
2450.7
1902
1799.41
1898.23
1936.2
1983.13
2100.38
2268.05
2439.59
2556.87
2606.9
2612.36
2602.57
2548.25
2429.46
2265.89
2096.32
1974.52
1937.58
1884.41
1770.27
1877.16
2389.72
3144.18
3165.64
2394.07
1909.74
1830.37
1879.66
1893.1
1916.98
2040.06
2202.57
2365.03
2465.14
2504.9
2517.41
2501.85
2458.76
2354.94
2193.47
2034.11
1920.26
1889.59
1870.43
1802.97
1884.54
2380.29
3126.76
3174.93
2386.53
1897.47
1823.87
1857.43
1848.44
1878.9
1992.78
2139.17
2283.31
2377.79
2420.99
2426.06
2419.33
2374.33
2280
2144
1994.13
1872.16
1853.3
1845.76
1799.88
1868.33
2320.3
3089.86
3151.68
2375.68
1921.19
1848.86
1846.84
1825.72
1832.01
1946.04
2087.1
2223.75
2301.69
2331.55
2343.48
2329.4
2297.57
2216.81
2081.49
1946.86
1834.58
1819.98
1845.96
1830.08
1897.17
2333.6
3103.41
3098.35
2346.59
1914.36
1838.36
1821.61
1793.04
1809.1
1921.23
2042.84
2158.05
2226.37
2260.8
2263.83
2259.68
2222
2150.79
2041.4
1915.63
1801.06
1795.01
1815.73
1818.27
1904.94
2361.68
3111.14
3090.64
2347.34
1946.45
1876.35
1806.95
1778.57
1780.59
1880.54
1994.87
2105.24
2162.38
2182.9
2193.3
2181.21
2160.65
2100.67
1991.35
1886.35
1781.9
1774.87
1815.84
1863.81
1922.21
2338.2
3061.3
3045.5
2313.55
1950.33
1870.58
1785.25
1746.44
1761.58
1866.48
1961.72
2051.34
2096.46
2124.34
2125.25
2122.89
2091.65
2045.54
1961.97
1861.4
1760.34
1745.28
1779.81
1862.65
1941.63
2318.36
3037.14
3000.75
2290.62
1993.19
1893.07
1800.4
1732.97
1752.75
1835.49
1920.43
2005.56
2046.1
2056.96
2065.86
2054.87
2042.98
1999.41
1914.83
1837.46
1750.45
1730.24
1803.65
1881.31
1980.54
2303.63
2995.23
2978.79
2286.75
2012.2
1904.38
1779.8
1703.04
1729.49
1822.1
1892.89
1958.73
1985.28
2008.98
2008.07
2007.95
1981.34
1957.53
1894.62
1817.9
1733.24
1700.73
1776.64
1898.56
2005.24
2263.22
2937.69
2948.52
2270.66
2017.06
1915.67
1791.11
1714.36
1725.71
1795.08
1856.67
1916.71
1946.8
1950.47
1958.66
1948.76
1943.16
1910.26
1852.2
1799.95
1724.53
1709.17
1796.01
1913.7
2020.85
2260.5
2930.47
2901.95
2235.05
2012.67
1932.43
1784.52
1693.66
1703.61
1780.08
1839.14
1882.43
1891.92
1911.76
1909.63
1911.02
1888.02
1879.57
1835.67
1773.13
1707.49
1688.81
1777.38
1935.43
2015.95
2224.87
2894.38
2883.95
2223.34
2013.3
1975.44
1799.22
1719.03
1707.96
1755.46
1804.01
1838.96
1862.16
1861.07
1868.32
1859.7
1859.33
1833.62
1799.67
1764.63
1705.84
1714.94
1801.06
1968.77
2015.69
2208.05
2863.99
2845.3
2206.87
2003.64
2014.9
1808.23
1710.76
1680.72
1738.98
1787.14
1815.62
1813.95
1830.25
1826.87
1828.63
1811.4
1814.14
1783.15
1738.64
1686.57
1712.23
1801.84
2036.91
2008.84
2206.15
2832.55
2797.86
2192.67
1988.89
2016.95
1833.06
1746.56
1703.09
1732.87
1760.13
1770.94
1790.85
1786.52
1792.2
1784.78
1788.07
1766.06
1751.67
1741.93
1698.41
1742.32
1842.61
2032.97
2000.12
2198.79
2800.03
2768.46
2189.03
1956.1
2001.7
1883.73
1739.91
1680.69
1716.5
1740.68
1756.12
1748.54
1760.82
1756.92
1760.45
1747.34
1755.53
1734.81
1716.6
1697.9
1745.19
1876.69
2019.09
1967.69
2175.08
2759.23
2734.82
2179.79
1931.87
1991.63
1958.13
1781.12
1724.91
1730.26
1721.79
1712.51
1729.99
1722.56
1727.68
1722.01
1727.52
1709.77
1716.27
1735.32
1727.1
1788.79
1967.07
2010.78
1938.78
2174.26
2735.15
2708.51
2161.52
1907.55
1967.7
1956.3
1803.67
1716.6
1715.21
1707.48
1709.55
1694.67
1702.18
1697.88
1702.52
1693.82
1707.45
1696.58
1710.71
1727.03
1808.05
1960.54
1981.78
1911.13
2162.8
2707.5
2676.81
2156.58
1895.5
1936.41
1939.22
1872.88
1769.56
1748.8
1705.15
1669.78
1679.24
1669.6
1673.3
1669.12
1677.98
1667.8
1701.71
1757.3
1768.03
1872.76
1951.54
1947.83
1888.8
2149.22
2675.01
2656.89
2147.97
1884.7
1905.81
1924.62
1944.02
1780.91
1731.08
1702.08
1680.75
1653.89
1654.21
1648.59
1654.33
1653.41
1677.5
1687.04
1731.09
1796.34
1970.51
1933.06
1908.88
1880.58
2144.46
2652.4
2618.32
2125.65
1874.91
1882.71
1886.17
1919.77
1859.52
1777.09
1725.86
1652.36
1647.71
1628.5
1629.42
1627.34
1645.57
1646.93
1715.47
1786.65
1870.51
1940.84
1903.04
1887.2
1871.23
2131.38
2617.31
2601.35
2125.02
1875.01
1863.41
1855.58
1907.15
1954.14
1789.73
1723.48
1684.16
1638.04
1624.21
1613.77
1623.88
1638.09
1673.96
1702.51
1788.93
1986.14
1933.39
1870.94
1861.71
1867.56
2117.03
2593.45
2553.81
2102.77
1867.84
1845.59
1823.51
1877.87
1927.36
1882.07
1765.97
1655.61
1641.82
1610.16
1605.1
1608.72
1642.65
1654.79
1756.03
1887.56
1952.57
1890.4
1839.73
1853.19
1864.24
2102.98
2539.27
2515.78
2087.57
1857.7
1842.48
1806.02
1843.6
1917.42
1970.17
1797.84
1702.13
1644.88
1626.34
1606.11
1624.83
1643.91
1696.17
1778.69
1990.43
1941.34
1857.05
1817.52
1835.39
1855.82
2087.58
2504.04
2353.97
2038.44
1840.24
1825.18
1782.39
1808.79
1891.29
1947.39
1915.55
1688.49
1656.22
1612.83
1609.36
1611.19
1655.8
1698.53
1907.04
1960.85
1906.09
1811.42
1793.23
1831.87
1837.64
2035.36
2339.37
371.232
390.805
507.328
565.025
641.085
645.65
618.248
537.963
457.302
399.893
367.812
353.595
347.558
343.457
339.385
335.323
332.452
330.29
327.33
322.009
305.988
293.176
284.511
279.703
277.884
277.208
277.422
278.646
280.011
281.02
389.285
447.551
714.907
879.736
1018.43
1003.35
946.495
784.538
593.783
464.076
395.185
365.172
353.102
347.04
342.302
338.17
335.56
334.336
332.409
327.074
313.921
296.894
285.866
278.561
275.829
274.901
274.995
276.335
277.847
279.031
405.862
519.234
929.375
1126.49
1160.89
1107.51
1052.67
953.021
708.579
519.674
420.744
376.633
358.698
350.431
344.769
340.067
337.13
335.908
334.234
330.01
321.682
302.352
288.401
279.413
275.009
274.02
274.072
275.494
277.214
278.765
435.198
622.438
1159.27
1244.42
1207.24
1130.59
1081.53
1051.45
927.866
638.384
471.188
397.369
367.979
355.847
348.821
343.679
340.282
338.707
336.989
332.606
325.757
311.4
291.805
280.382
274.358
273.013
273.007
274.368
276.243
277.966
470.206
741.651
1229.6
1254.19
1195.74
1089.76
1041.85
1039.17
1010.49
790.371
541.481
426.549
380.644
362.444
353.332
347.438
343.54
341.799
339.738
335.357
329.222
320.642
298.418
282.732
275.173
272.589
272.627
273.991
275.597
276.67
516.309
901.367
1260.6
1246.3
1137.08
999.652
946.146
963.616
1009.49
917.918
630.095
465.539
397.9
371.327
359.268
352.096
347.644
345.587
343.178
338.602
331.928
325.318
311.172
287.359
276.604
272.49
272.406
273.643
274.549
275.091
579.083
1064.52
1273.28
1219.23
1047.13
901.354
843.049
866.311
965.248
951.965
723.544
511.73
419.362
382.254
366.337
357.731
352.525
349.694
347.195
342.611
334.893
329.412
320.652
296.444
279.818
273.721
272.218
272.785
273.93
274.77
653.02
1181.88
1275.16
1174
969.766
834.39
782.354
798.701
909.764
950.546
801.868
562.169
444.633
395.313
374.516
363.96
357.996
354.526
351.59
347.007
339.971
332.589
325.796
312.959
285.828
275.393
272.717
272.931
274.23
275.212
732.082
1223.78
1262.21
1118.06
907.406
790.363
754.383
772.082
874.524
941.601
852.678
611.673
471.81
410.722
384.161
371.195
364.075
360.031
356.629
352.254
346.401
336.631
331.282
323.258
301.614
279.655
274.12
274.024
275.397
276.295
818.781
1243.11
1236.63
1051.86
841.059
746.379
735.83
768.349
868.636
937
878.923
655.368
497.973
426.38
395.085
379.239
370.609
365.807
362.146
358.18
353.44
344.543
335.715
330.451
322.409
291.065
277.839
275.52
277.151
278.251
895.786
1254.81
1208.46
987.207
780.71
706.194
719.503
775.075
878.467
936.058
887.658
683.432
520.48
440.652
405.574
387.423
377.282
371.671
367.796
364.344
360.677
354.808
341.652
335.887
330.505
317.142
286.421
277.54
274.982
275.188
963.908
1263.53
1177.61
929.511
738.315
686.281
712.063
795.465
892.451
935.439
884.717
688.967
529.625
451.528
414.651
395.063
383.77
377.358
373.065
369.609
366.254
360.843
348.927
340.641
336.109
330.203
304.265
280.908
273.961
270.689
1018.62
1269.01
1144.42
887.524
715.928
675.137
707.881
807.264
897.179
927.655
864.765
673.105
527.858
455.804
421.507
401.474
389.823
382.829
378.164
374.463
371.075
366.042
355.912
345.014
340.236
336.298
328.507
289.423
275.108
269.807
1069.6
1271.46
1117.57
860.487
699.187
662.356
692.953
804.769
880.173
897.388
812.799
635.785
516.86
456.367
425.889
406.791
395.434
388.305
383.42
379.394
375.451
370.422
360.62
349.652
344.155
340.63
334.966
317.893
280.026
270.943
1120.09
1273.94
1097.38
843.298
683.794
644.698
666.312
763.282
817.915
825.893
726.382
586.1
500.318
454.59
429.317
411.677
400.715
393.837
389.01
384.706
380.546
374.939
364.397
354.253
348.217
344.568
340.073
331.967
298.286
275.135
1164.54
1275.12
1082.98
838.359
676.61
622.684
626.493
687.939
724.46
721.992
626.116
538.402
483.64
451.901
431.16
414.977
405.143
398.982
393.634
389.202
385
379.308
368.142
358.418
352.619
348.34
344.683
339.307
326.256
288.071
1203.77
1276.74
1078.85
840.006
676.58
609.401
590.394
610.376
628.968
614.445
543.602
502.087
470.884
449.162
431.678
417.546
409.616
403.921
398.292
393.829
389.766
383.831
372.099
362.732
356.873
352.216
348.889
346.043
342.642
325.312
1236.06
1280.04
1081.24
858.051
686.902
606.166
571.803
561.798
560.345
542.082
500.244
477.655
461.384
446.177
431.497
420.297
414.438
409.153
403.615
399.169
394.561
388.63
376.42
367.178
361.006
356.511
353.931
352.939
354.989
389.046
1263.02
1288.85
1098.36
888.525
711.921
614.859
567.695
546.549
533.392
515.331
486.937
467.83
456.293
443.706
432.906
424.398
420.589
415.422
410.177
405.439
400.255
392.82
380.6
372.106
365.849
361.966
361.012
362.208
373.858
429.175
1287.42
1303.94
1125.34
926.949
752.639
641.419
576.145
545.118
528.083
509.601
484.998
466.548
455.437
444.076
438.028
432.113
428.422
422.796
417.273
412.355
406.811
398.079
386.154
377.941
371.934
369.568
369.148
373.554
393.205
438.442
1313.42
1320.6
1162.53
978.976
806.795
691.949
608.219
557.075
532.506
512.598
490.837
472.488
459.928
451.688
448.934
443.375
437.739
431.011
425.443
420.647
414.306
403.713
392.637
384.752
379.829
377.3
378.825
387.474
421.047
441.893
1321.25
1343.02
1215.59
1049.07
885.093
762.573
669.223
593.634
554.019
529.523
510.804
491.982
474.908
465.645
462.859
457.071
448.738
441.041
435.284
429.949
422.002
410.386
399.882
392.583
388.871
386.404
389.828
404.25
443.79
444.824
1347.58
1371.21
1275.7
1132.05
976.279
847.863
748.064
659.698
598.969
562.374
541.671
521.034
498.541
484.232
478.718
472.4
461.937
453.614
446.276
439.326
429.41
417.748
407.59
401.971
398.051
396.668
403.158
425.365
452.133
445.114
1341.07
1404.92
1357.05
1226.66
1079.93
943.639
836.678
744.078
662.951
607.964
576.227
551.609
526.658
506.848
496.891
488.249
477.382
467.101
457.623
448.715
436.595
425.63
416.322
411.654
408.267
408.611
419.801
454.525
457.582
443.993
1353.08
1462.75
1443.77
1325.49
1185.57
1047.15
931.54
832.751
742.798
668.469
619.034
585.049
558.782
534.834
517.708
503.894
493.112
479.998
467.888
456.414
444.986
434.863
426.477
421.493
418.718
421.988
437.545
467.024
462.706
446.152
280.848
279.864
278.516
277.381
277.236
277.971
279.881
284.947
293.916
308.009
322.259
327.334
329.925
332.029
335.056
339.201
343.3
347.491
354.134
370.263
406.369
470.106
558.74
645.469
672.548
666.952
586.052
522.52
395.656
373.152
278.672
277.557
276.122
274.946
274.927
275.958
278.927
286.403
297.783
315.829
327.117
331.893
333.733
335.034
337.822
342.067
346.992
353.442
366.978
400.972
478.476
623.231
830.906
980.871
1035.02
1054.59
927.187
747.485
458.167
393.212
278.281
276.832
275.251
274.019
274.053
275.172
279.85
289.065
303.484
322.548
329.965
333.565
335.089
336.527
339.726
344.563
350.538
359.399
379.516
429.109
539.702
749.105
984.112
1064.24
1120.32
1177.34
1158.31
967.344
535.103
410.455
277.376
275.776
274.076
272.937
273.037
274.573
280.865
292.598
313.017
325.98
332.379
336.251
337.839
339.667
343.275
348.665
356.072
369.289
402.335
485.175
670.357
958.909
1056.62
1082.58
1135.9
1214.8
1254.73
1183.52
644.53
441.358
276.206
275.167
273.686
272.547
272.608
275.418
283.274
299.322
320.906
329.203
334.938
339.007
340.906
342.881
347.032
353.349
363
383.114
434.346
561.39
828.001
1017.85
1034.32
1036.42
1092.06
1199.81
1261.57
1243.5
767.753
478.791
274.62
274.166
273.339
272.309
272.506
276.851
287.863
311.674
325.249
331.817
338.232
342.374
344.646
346.933
351.76
359.42
372.362
401.697
476.752
656.768
936.648
1004.26
950.418
936.625
1001.98
1139.6
1253.34
1270.67
929.463
527.225
274.267
273.532
272.522
272.159
273.729
280.042
296.717
320.53
329.245
334.7
342.058
346.401
348.828
351.866
357.376
366.63
383.894
424.637
525.879
751.868
956.948
953.19
855.016
838.358
906.88
1052.38
1226.36
1281.85
1087.56
592.734
274.694
273.819
272.67
272.625
275.42
285.87
312.4
325.44
332.34
339.63
346.403
350.817
353.707
357.414
363.704
375.04
397.726
451.445
578.944
826.763
951.763
895.058
793.545
782.847
842.169
978.842
1182.31
1282.84
1192.35
668.421
275.761
274.974
273.769
273.992
279.456
300.181
322.649
330.848
336.353
346.033
351.64
355.879
359.315
363.5
371.028
385.007
413.985
480.179
631.195
870.09
941.132
863.03
769.385
754.754
794.004
915.528
1127.74
1269.63
1231.19
749.004
277.737
276.694
275.22
277.487
289.979
321.213
329.742
335.329
344.16
352.752
357.495
361.468
365.142
370.081
379.154
396.043
430.045
507.686
676.155
892.073
937.075
859.666
765.995
733.295
745.109
846.038
1061.94
1244.69
1249.25
834.717
274.974
274.725
277.055
285.518
314.694
329.49
335.241
341.153
354.302
360.089
363.626
367.129
371.061
376.756
387.465
406.916
445.089
531.133
704.982
900.67
937.644
871.901
772.79
717.053
705.417
784.82
997.068
1217.37
1260.55
909.77
270.378
273.57
280.256
301.606
329.035
335.301
340.03
348.755
360.437
365.755
369.01
372.412
376.736
383.367
395.25
416.05
456.003
539.928
710.478
899.089
939.493
889.139
792.486
709.028
686.586
743.313
940.634
1188.05
1269.41
973.658
269.457
274.646
288.013
327.047
335.388
339.503
344.576
356.84
365.949
370.69
373.919
377.599
382.235
389.432
401.652
422.595
459.986
537.565
693.72
881.552
934.357
896.631
803.075
704.259
674.856
720.489
899.531
1156.28
1274.78
1025.36
270.551
279.234
315.465
333.946
339.783
343.405
349.281
362.278
370.709
375.156
378.803
382.656
387.435
394.748
406.853
427.049
459.915
525.047
652.657
831.693
905.52
883.781
800.248
689.852
662.444
702.705
872.133
1130.53
1277.73
1075.55
274.509
296.225
330.906
339.195
343.731
347.483
354.55
366.291
375.35
379.931
383.722
387.783
392.65
399.557
411.126
429.233
456.739
505.024
597.439
744.879
834.908
823.001
759.482
664.478
645.581
687.697
855.184
1110.76
1281.04
1125.54
286.76
323.976
338.266
343.776
347.501
352.041
358.773
369.876
379.712
384.844
388.774
393.099
398.207
404.211
414.6
430.408
452.882
486.613
545.324
638.996
730.151
728.529
686.484
625.916
623.746
681.478
850.523
1096.74
1282.76
1168.76
322.457
341.458
345.007
347.951
351.507
356.708
363.165
373.593
384.272
389.861
393.9
398.384
403.926
409.09
417.247
430.813
449.259
472.224
505.734
550.948
620.799
630.687
610.186
590.665
611.313
682.604
852.359
1093
1284.87
1207.9
386.962
353.841
352.08
353.056
356.039
361.223
367.666
377.718
389.15
395.101
399.525
403.877
409.505
414.416
420.106
431.002
445.591
461.505
479.367
503.863
545.307
561.205
562.067
572.576
608.491
693.808
870.559
1095.35
1288.64
1241.02
427.563
372.522
361.347
360.519
361.538
366.045
372.587
382.155
394.294
400.672
405.542
410.245
415.527
420.384
424.136
432.437
442.861
455.627
468.748
488.948
516.614
534.011
547.072
568.82
618.061
719.792
900.697
1112.37
1297.5
1268.31
436.805
391.886
372.808
368.658
369.23
371.93
378.371
387.332
399.139
406.294
411.952
416.998
422.495
428.061
431.623
437.213
443.612
454.634
467.033
486.5
510.095
528.384
545.791
578.11
645.812
760.884
939.831
1138.92
1312.56
1293.01
440.218
419.739
386.738
378.59
377.269
379.779
385.123
393.479
404.607
413.881
419.961
424.949
430.44
437.51
442.757
447.574
450.661
458.889
472.565
491.777
512.254
532.349
558.107
611.143
697.004
815.618
992.067
1175.35
1330.05
1321.31
443.13
443.165
403.892
389.837
386.535
389.099
392.795
400.651
411.231
421.616
429.221
434.428
440.426
448.274
456.555
461.431
464.359
474.08
491.432
510.75
528.282
553.281
594.781
673.209
768.57
894.013
1062.54
1227.62
1352.93
1328.8
443.308
451.682
424.734
403.366
397.049
398.361
402.096
408.355
418.536
429.712
438.602
445.163
452.634
461.376
471.729
477.719
483.28
497.925
520.111
541.172
561.311
598.249
661.09
752.536
855.031
986.428
1145.45
1288.36
1381.41
1354.03
442.489
457.165
454.537
420.047
409.016
408.704
412.189
416.886
426.602
436.765
447.673
456.22
466.001
476.551
487.436
496.524
506.77
526.57
550.45
576.155
608.056
663.077
745.897
840.168
950.602
1091.04
1238.97
1367.94
1413.87
1346.05
445.056
462.259
467.113
437.794
422.534
419.286
421.982
427.026
435.258
445.362
456.915
467.651
479.287
492.758
503.709
517.697
535.091
559.46
585.199
621.135
671.064
743.917
835.448
936.325
1054.02
1196.32
1336.51
1452.97
1469.15
1356.83
712.712
708.461
707.301
698.875
696.013
687.556
679.327
672.113
662.813
654.85
647.487
639.838
632.266
627.318
626.535
626.069
626.602
629.136
635.732
644.767
654.488
667.632
680.243
694.665
709.126
722.713
737.648
753.003
768.532
783.813
799.099
815.212
830.406
843.822
855.531
865.409
874.07
879.758
883.018
882.734
877.728
869.254
859.003
847.752
837.447
830.068
822.127
812.397
800.179
785.835
770.669
755.133
740.532
728.092
715.99
704.112
692.455
681.165
670.767
661.739
653.625
646.802
641.017
635.856
631.403
627.864
625.058
623.018
621.456
619.757
618.206
616.459
615.119
614.142
613.139
611.718
608.909
605.35
601.047
596.636
592.128
587.488
582.797
578.236
573.936
570.014
566.46
563.156
559.981
556.88
553.907
551.081
548.539
546.26
544.218
542.4
540.685
538.917
537.14
534.825
532.239
528.731
524.748
520.293
515.289
510.403
506.075
501.692
497.967
494.125
490.117
487.368
484.267
481.832
479.582
476.753
474.342
472.746
471.034
468.587
465.884
462.377
458.206
453.676
449.238
723.435
719.837
718.608
713.457
712.09
708.034
704.116
700.139
695.648
690.531
686.58
681.772
679.189
678.732
681.471
683.526
687.558
693.716
702.108
717.631
733.094
756.156
784.656
816.387
856.108
895.657
939.735
985.503
1031.81
1078.82
1125.17
1169.6
1210.91
1248.37
1281.56
1309.79
1332.17
1349.89
1359.72
1360.3
1352.67
1335.92
1312.31
1286.02
1258.45
1229.49
1198.04
1163.92
1126.24
1085.4
1044.45
1004.63
965.587
930.055
894.518
857.028
818.698
781.484
747.217
718.12
695.812
679.282
667.235
658.357
651.921
647.229
643.454
640.11
637.133
633.904
630.907
628.322
626.199
624.24
622.271
620.003
617.152
613.536
609.56
605.328
600.81
596.095
591.366
586.8
582.5
578.503
574.748
571.14
567.634
564.234
561.041
558.126
555.567
553.335
551.325
549.359
547.381
545.25
543.243
540.732
538.462
535.791
532.685
529.367
525.969
522.528
519.129
516.254
514.046
511.956
510.003
507.825
504.987
501.752
496.701
492.027
488.161
484.646
480.976
476.978
472.7
468.501
464.659
462.087
462.198
755.129
751.576
750.514
748.667
748.851
748.023
747.838
748.401
750.438
751.264
753.514
757.598
762.87
768.167
778.965
789.178
803.356
821.714
841.575
876.386
909.861
957.355
1014.17
1075.88
1149.45
1223.4
1299.65
1374.52
1445.7
1514.47
1577.21
1630.3
1674.28
1710.79
1741.56
1766.52
1785.52
1799.25
1806.04
1806.82
1799.84
1785.83
1762.83
1735.58
1707.56
1680.02
1650.22
1616
1575.02
1527.45
1477.04
1426.46
1374.57
1323.43
1266.68
1199.48
1121.67
1038.09
955.577
879.852
815.349
765.933
731.18
707.988
693.046
682.721
675.025
668.42
662.962
658.065
653.432
649.461
645.963
642.321
638.621
635.159
631.717
628.145
624.405
620.325
615.774
610.864
605.792
600.724
595.756
590.935
586.307
581.91
577.738
573.835
570.291
567.144
564.365
561.916
559.651
557.545
555.453
553.406
551.561
549.71
547.677
545.799
543.884
542.219
539.806
536.811
533.774
530.352
527.129
523.948
520.708
516.646
512.139
507.799
503.899
500.435
496.75
492.95
489.14
485.65
482.836
481.228
482.929
480.313
473.906
832.177
831.592
833.4
835.898
840.918
844.345
851.306
858.004
869.367
878.663
889.802
905.488
922.362
938.24
965.31
988.825
1021.4
1059.87
1095.23
1151.89
1205.22
1268.1
1339.13
1411.77
1487.53
1562.37
1634.27
1702.35
1766.1
1823.99
1873.95
1915.46
1949.08
1974.2
1992.78
2006.33
2016.73
2024.04
2027.87
2027.5
2023.14
2013.98
1999.69
1981.18
1961.24
1940.65
1918.9
1894.36
1866.33
1834.35
1799.03
1761.07
1720.9
1680.18
1637
1587.07
1525.11
1458.65
1375.94
1260.63
1115.87
981.601
883.609
818.004
776.025
749.229
730.595
716.585
705.542
696.636
689.312
683.303
678.06
673.423
669.21
665.604
662.21
658.646
654.836
650.344
644.977
638.906
632.553
626.289
620.258
614.514
609.047
603.84
598.882
594.205
589.831
585.793
582.054
578.664
575.689
573.069
570.823
568.798
567.099
565.518
563.834
562.333
561.164
559.293
557.103
554.557
550.438
543.065
536.922
531.064
525.82
521.728
518.472
515.588
512.547
509.344
506.327
504.319
503.947
508.144
506.364
500.43
494.542
484.188
461.249
1018.51
1019.91
1026.62
1031.32
1046.89
1055.97
1074.05
1090.15
1113.77
1134.79
1154.26
1181.14
1209.23
1230.87
1266.93
1298.26
1334.73
1381.71
1421.72
1472.72
1527.82
1585.28
1644.8
1703.99
1760.59
1811.7
1856.67
1896.19
1929.12
1960.79
1990.84
2021.93
2050.83
2078.24
2102.71
2122.41
2136.79
2145.53
2149.26
2149.78
2145.69
2137.69
2126.11
2112.15
2095.92
2078.67
2060.6
2041.28
2020.85
1999.12
1975.97
1950.95
1924.13
1896.4
1867.34
1836.01
1798.81
1761.4
1713.69
1646.52
1552.19
1411.88
1242.89
1088.36
973.571
898.281
847.77
811.233
784.569
765.756
752.975
744.275
737.109
731.211
726.787
723.137
720.286
717.309
713.969
710.28
704.005
695.188
684.913
674.358
664.271
654.991
646.509
638.701
631.492
624.862
618.726
612.961
607.611
602.664
598.157
594.197
590.728
587.759
584.911
582.561
579.709
577.109
574.343
570.595
564.389
558.231
552.175
547.064
542.926
540.004
537.481
534.85
532.414
530.464
529.491
529.841
534.962
534.884
530.557
524.818
516.397
497.99
470.398
453.127
436.436
1406.46
1402.29
1409.97
1413.84
1434.25
1446.67
1464.92
1478.54
1498.57
1518.51
1533.15
1552.55
1575.04
1592.03
1612.77
1635.23
1657.5
1684.8
1714.29
1744.44
1775.07
1806.53
1837.86
1869.42
1901.41
1934.33
1966.98
1996.35
2023.58
2047.07
2069.43
2090.81
2114.01
2137.45
2161.23
2182.71
2200.22
2213.11
2220.96
2222.81
2219.44
2211.75
2200.79
2187.38
2172.69
2156.79
2140.4
2124.22
2108.61
2093.61
2078.54
2062.48
2045.41
2026.4
2005.97
1983.7
1958.98
1934.39
1906.99
1873.55
1829.23
1759.28
1649.84
1507.16
1358.83
1222.8
1112.23
1027.16
962.469
915.601
883.806
863.431
849.98
840.475
834.031
829.374
825.682
823.167
819.89
815.493
809.892
800.575
786.883
769.445
750.285
731.511
714.679
700.327
687.669
675.96
664.805
654.028
643.852
634.827
626.889
619.94
614.128
608.82
603.496
598.209
592.964
587.508
581.785
576.499
571.878
568.169
565.466
562.372
559.55
557.285
555.825
555.96
560.573
561.818
561.228
557.907
553.193
546.771
533.203
505.375
487.974
470.762
455.855
442.942
430.382
1868.34
1857.61
1857.27
1856.47
1862.43
1866.59
1871.15
1875.02
1879.43
1883.01
1884.33
1884.56
1884.06
1883.13
1882.09
1881.95
1883.69
1888.1
1895.45
1906.05
1920.26
1938.7
1960.93
1986.08
2012.23
2037.95
2063.64
2088.21
2109.64
2124.62
2135.69
2144.94
2158.57
2172.03
2186.41
2201.81
2217.35
2231.82
2246.22
2249.99
2247.62
2242.22
2233.18
2221.1
2207.25
2192.89
2178.39
2164.37
2151.32
2139.47
2128.17
2116.85
2105.32
2092.85
2080.06
2066.28
2051.21
2035.29
2017.83
1998.02
1973.89
1940.03
1884.54
1802.93
1698.85
1581.5
1464.68
1358.48
1267.67
1192.61
1133.13
1088.68
1057.08
1035.24
1019.95
1008.96
1001.27
995.644
990.298
984.376
976.11
963.847
948.304
928.664
905.413
880.505
853.39
825.703
799.289
774.704
750.007
725.945
704.038
684.728
667.844
653.491
641.53
631.457
622.893
615.697
609.668
604.572
600.057
595.924
592.761
590.851
589.949
589.074
589.47
592.697
592.536
589.834
585.319
580.709
574.322
561.287
535.701
520.092
505.169
490.566
477.381
464.296
453.463
442.853
432.617
2113.58
2105.1
2101.64
2099.87
2099.84
2100.98
2100.39
2098.63
2096.42
2092.99
2087.06
2079.85
2071.66
2062.29
2052.62
2043.47
2036.17
2031.95
2032.24
2036.01
2044.54
2058.38
2075.94
2095.75
2115.31
2133.22
2148.89
2159.59
2167.67
2172.81
2174.85
2176.56
2182.33
2188.48
2194.75
2203.01
2213.12
2225.05
2241.6
2247.43
2245.95
2241.99
2235.4
2225.93
2214.06
2200.93
2187.8
2175.06
2163.49
2152.62
2142.99
2134.02
2124.83
2115.41
2105.71
2095.7
2084.7
2072.94
2060.1
2045.26
2027.3
2003.17
1968.2
1918.37
1852.71
1774.3
1689.77
1606.34