/*--------------------------------*- C++ -*----------------------------------*\
| =========                 |                                                 |
| \\      /  F ield         | OpenFOAM: The Open Source CFD Toolbox           |
|  \\    /   O peration     | Version:  2112                                  |
|   \\  /    A nd           | Website:  www.openfoam.com                      |
|    \\/     M anipulation  |                                                 |
\*---------------------------------------------------------------------------*/
FoamFile
{
    version     2.0;
    format      ascii;
    arch        "LSB;label=32;scalar=64";
    class       volVectorField;
    location    "0.00053";
    object      U;
}
// * * * * * * * * * * * * * * * * * * * * * * * * * * * * * * * * * * * * * //

dimensions      [0 1 -1 0 0 0 0];

internalField   nonuniform List<vector> 
13875
(
(2211.06 110.937 1.79865e-18)
(2140.01 9.55266 -9.32935e-19)
(2169.36 -1.86497 -9.42327e-19)
(2171.23 -1.37822 0)
(2169.55 -0.032474 0)
(2169.12 -1.76691 9.37029e-19)
(2169.18 -1.36563 -9.37519e-19)
(2170.46 -0.14681 -4.6812e-19)
(2169.3 0.548162 4.67926e-19)
(2169.64 0.74061 0)
(2169.87 0.355306 -3.85848e-22)
(2169.84 0.136324 -3.85713e-22)
(2169.83 0.034689 0)
(2169.81 -0.0483996 -4.67933e-19)
(2169.66 -0.661981 4.6839e-19)
(2169.55 -1.06754 0)
(2169.81 -0.420198 9.36968e-19)
(2169.48 0.146127 -9.37536e-19)
(2168.73 0.530505 3.88519e-22)
(2168.74 1.3533 -3.88117e-22)
(2169.33 1.60159 -9.35977e-19)
(2171.21 2.3046 9.34615e-19)
(2167.2 2.98022 -1.88857e-18)
(2139.57 -9.27008 1.92621e-18)
(2204.86 -108.057 1.78096e-18)
(2256.92 94.1042 -1.63196e-18)
(2227.5 -3.63569 1.88214e-18)
(2247 -1.20029 8.70356e-19)
(2247.82 1.67922 -8.67193e-19)
(2248.23 0.665757 4.17829e-22)
(2247.97 2.07993 5.20173e-22)
(2246.38 1.09695 4.15949e-22)
(2246.61 0.679299 -4.35106e-19)
(2245.98 -0.147531 4.35395e-19)
(2247.13 -1.38212 2.16447e-19)
(2247.97 -0.564612 -1.62676e-19)
(2248.17 -0.0511488 -5.2904e-20)
(2248.17 -0.0390908 0)
(2248.08 -0.00282797 -4.34631e-19)
(2247.81 1.05287 4.33376e-19)
(2246.76 1.09686 4.35951e-19)
(2245.81 0.229916 -4.34644e-19)
(2245.76 0.263109 5.18129e-22)
(2245.54 -0.189552 -5.18223e-22)
(2246.04 -1.48679 5.18691e-22)
(2247.65 -2.62473 -8.68871e-19)
(2247.77 -2.6791 2.60244e-18)
(2245.55 0.183971 -1.71527e-18)
(2227.67 5.74437 5.42787e-22)
(2255.7 -94.2588 -1.69639e-18)
(2257.3 80.1394 0)
(2233.44 -13.8297 0)
(2248.49 3.10426 0)
(2252.59 -2.49062 0)
(2252.85 -1.11893 -1.71026e-18)
(2253.27 1.56417 1.70126e-18)
(2253.07 1.39422 1.64229e-18)
(2253.63 -0.422282 -2.46203e-18)
(2254.09 -1.02891 8.61683e-19)
(2254.22 -1.60051 4.08865e-22)
(2254.49 -0.783117 -4.09617e-19)
(2254.62 -0.273479 4.098e-19)
(2254.63 -0.00299721 0)
(2254.56 0.27374 0)
(2254.36 1.08138 4.08167e-22)
(2254.4 2.01261 0)
(2253.61 1.36958 8.40088e-22)
(2253.27 0.319761 4.31095e-19)
(2252.51 -0.215705 -4.31037e-19)
(2252.47 -1.57898 0)
(2252.66 -0.792168 0)
(2252.16 1.45071 0)
(2245.49 -1.89863 0)
(2233.1 14.3857 0)
(2253.37 -73.5605 0)
(2250.83 54.0719 0)
(2232.99 -29.4534 1.81833e-18)
(2248.12 5.15407 -3.41934e-18)
(2251.28 -4.52346 3.41668e-18)
(2252.58 -2.04056 -1.72113e-18)
(2253.25 1.16977 0)
(2252.99 1.31378 -7.88284e-22)
(2253.55 -0.921623 0)
(2254.18 -1.66838 0)
(2254.19 -1.64573 0)
(2254.46 -0.831205 0)
(2254.58 -0.324453 -7.90967e-22)
(2254.58 -0.00544664 -5.031e-20)
(2254.55 0.351253 5.05189e-20)
(2254.34 1.09036 0)
(2254.37 2.40906 0)
(2253.66 2.14502 8.41435e-22)
(2253.3 0.946631 -8.65369e-19)
(2252.62 0.107191 8.53412e-19)
(2252.82 -0.913028 -1.70606e-18)
(2252.46 0.401222 1.72433e-18)
(2250.77 3.67767 1.73427e-18)
(2244.79 -6.05001 -1.73095e-18)
(2233.54 30.5034 0)
(2251.18 -61.9542 0)
(2249.67 43.4198 1.73514e-18)
(2232.5 -41.8079 0)
(2247.21 9.10839 0)
(2252.11 -7.98279 0)
(2252.29 -2.84002 0)
(2252.67 0.91799 1.63141e-21)
(2252.71 1.04727 1.65063e-21)
(2253.26 -2.13773 4.29172e-19)
(2254.12 -2.69774 -4.30602e-19)
(2254.12 -1.73911 2.08531e-19)
(2254.37 -0.968162 -2.12184e-19)
(2254.44 -0.436612 0)
(2254.47 0.0627165 0)
(2254.44 0.521434 -1.63238e-21)
(2254.26 1.13982 0)
(2254.18 2.82857 -1.68461e-21)
(2253.61 3.30975 8.62132e-19)
(2253.22 1.91238 -8.59274e-19)
(2252.32 0.459297 1.69878e-18)
(2252.36 -0.422498 -1.6819e-18)
(2251.81 1.77422 1.69498e-21)
(2251.6 7.5867 0)
(2243.9 -8.06695 0)
(2231.58 40.0026 0)
(2246.42 -35.1256 0)
(2243.05 11.2884 0)
(2228.76 -63.2601 9.15956e-19)
(2244.93 9.92227 -8.48154e-19)
(2249.5 -10.546 0)
(2251.67 -4.18998 8.63126e-19)
(2252.39 -0.23256 -4.25385e-19)
(2252.34 0.344233 -2.95103e-21)
(2252.97 -2.81141 -2.17971e-19)
(2254.07 -3.24176 -4.33135e-19)
(2253.93 -1.70822 1.58347e-19)
(2254.15 -0.959253 1.66622e-21)
(2254.22 -0.352353 2.64361e-19)
(2254.22 -0.0076255 -2.1168e-19)
(2254.22 0.476667 3.2817e-21)
(2254.07 1.06357 -4.14628e-19)
(2253.96 2.78805 4.28543e-19)
(2253.82 3.95352 1.68889e-21)
(2252.89 2.62299 -1.67647e-21)
(2252.44 1.19497 -1.67091e-21)
(2252.39 0.950503 -8.47539e-19)
(2251.6 3.77684 8.5989e-19)
(2248.66 10.4744 0)
(2240.88 -11.4529 0)
(2228.24 61.2508 -1.93073e-18)
(2243.86 -27.7195 -1.20352e-19)
(2264.52 5.707 -4.9124e-20)
(2222.39 -73.1038 6.07602e-20)
(2238.31 10.6779 0)
(2248.67 -18.1481 -2.62766e-23)
(2249.61 -4.91636 -2.66145e-23)
(2250.62 -1.12872 0)
(2252.48 -1.56572 0)
(2252.99 -4.30438 -8.57207e-19)
(2253.51 -4.04714 8.51793e-19)
(2253.54 -1.92352 0)
(2253.71 -1.22809 1.68096e-18)
(2253.77 -0.408493 1.27243e-21)
(2253.77 0.163544 -1.71504e-18)
(2253.76 0.684601 -1.68367e-21)
(2253.65 1.29014 0)
(2253.46 3.00916 3.35946e-18)
(2253.41 4.84163 1.05916e-20)
(2253.08 4.1382 -6.85745e-18)
(2251.96 2.38762 3.45406e-18)
(2250.69 2.23907 2.63035e-23)
(2248.95 5.80636 0)
(2246.57 17.6294 3.50634e-18)
(2233.99 -8.72346 -3.39056e-18)
(2218.07 67.5632 3.86287e-18)
(2235.47 -1.06972 -3.23937e-18)
(2206.84 -17.8843 -3.48168e-19)
(2205.17 -88.2653 -7.61173e-18)
(2228.6 -0.296922 8.91879e-22)
(2238.98 -21.9885 2.58756e-23)
(2245.97 -8.31866 -8.27583e-22)
(2249.17 -4.42381 0)
(2250.4 -3.0612 -3.38007e-18)
(2251.81 -4.83502 3.39915e-18)
(2252.39 -3.82769 0)
(2252.6 -1.64079 -8.20089e-22)
(2252.81 -0.951847 -8.31003e-22)
(2252.89 -0.276035 0)
(2252.87 0.110831 0)
(2252.87 0.476994 -1.65812e-21)
(2252.76 0.993519 -8.3068e-22)
(2252.51 2.46927 2.54984e-23)
(2252.5 4.70413 -8.4319e-22)
(2251.89 4.94529 -2.60043e-23)
(2250.49 4.04087 -1.73396e-18)
(2249.29 5.9388 -2.50417e-20)
(2245.47 11.1686 1.70904e-18)
(2235.22 22.897 9.09539e-22)
(2221.34 4.00172 3.59077e-18)
(2193.95 85.0064 -3.60735e-18)
(2174.62 15.1227 2.57841e-23)
(2071.61 -36.9495 9.53306e-19)
(2140.54 -100.87 0)
(2198.65 -26.0901 -8.46265e-22)
(2229.88 -41.4346 -8.58104e-19)
(2236.85 -17.0258 1.74058e-18)
(2243.53 -9.12274 -1.73627e-18)
(2248.64 -8.45828 1.22117e-20)
(2249.84 -7.57677 8.46282e-19)
(2250.29 -5.14763 0)
(2250.74 -2.63433 -8.41084e-19)
(2251 -1.47459 8.5759e-19)
(2251.04 -0.0954549 0)
(2251.04 0.211824 0)
(2251.03 0.508685 2.10042e-21)
(2250.97 1.45853 8.32133e-22)
(2250.6 3.09378 8.47904e-19)
(2250.52 5.86319 -8.37936e-19)
(2249.98 7.97833 0)
(2248.56 8.36941 8.72035e-19)
(2243.7 11.8441 -1.73826e-18)
(2234.84 21.6403 8.53694e-19)
(2223.15 46.0178 -8.38898e-22)
(2182.85 36.405 0)
(2101.51 115.575 0)
(1948.27 52.5091 0)
(1795.36 -158.186 -7.37804e-17)
(2073.06 -187.295 8.94541e-17)
(2164.39 -71.3183 0)
(2208.46 -60.465 -3.07752e-17)
(2228.49 -31.2563 3.14309e-17)
(2238.48 -19.0925 0)
(2242.9 -10.6666 -3.05282e-20)
(2245.27 -7.19776 -1.46889e-17)
(2246.01 -3.61233 1.46869e-17)
(2246.77 -1.61272 -2.98998e-20)
(2247.16 -1.31339 0)
(2247.19 -0.248885 -3.74695e-18)
(2247.21 0.14382 5.59463e-18)
(2247.19 0.634359 -1.90495e-18)
(2247.16 1.41196 -2.99104e-20)
(2246.61 1.91411 0)
(2246.33 4.39254 0)
(2245.28 8.00134 -2.97158e-17)
(2243.1 12.1379 2.98976e-17)
(2237.78 23.5847 -3.08374e-17)
(2226.07 41.7907 2.92894e-17)
(2196.43 73.1042 3.59711e-17)
(2141.57 115.047 -3.0791e-17)
(1983.54 263.369 -1.09715e-16)
(1519.44 188.006 -2.4708e-17)
(1577.16 -243.065 -1.0162e-16)
(1902.44 -340.414 1.46547e-16)
(2078.39 -143.986 0)
(2174.36 -100.897 6.83705e-17)
(2202.78 -39.8599 -7.56374e-17)
(2223.24 -25.152 -3.42099e-17)
(2232.53 -18.7954 3.47454e-17)
(2235.57 -11.5397 -3.36684e-17)
(2237.2 -6.37699 3.40493e-17)
(2238.37 -3.64637 3.2656e-20)
(2238.81 -1.34649 0)
(2238.84 -0.130049 -2.14102e-18)
(2238.88 0.134374 2.17896e-18)
(2238.86 0.511616 3.28598e-20)
(2238.89 1.49392 3.28511e-20)
(2238.3 3.46232 3.50928e-20)
(2237.56 6.63653 0)
(2235.62 12.5378 0)
(2232.77 18.2597 -7.08143e-17)
(2221.69 27.521 6.83209e-17)
(2199.25 49.7067 -7.82656e-17)
(2158.59 130.644 1.56722e-16)
(2023.04 187.077 -7.79368e-17)
(1767.33 520.46 -4.51464e-20)
(1150.19 572.182 7.64294e-20)
(1170.45 -542.231 -1.23799e-16)
(1408.03 -774.173 8.63624e-17)
(1795.17 -227.357 2.69722e-16)
(2014.2 -159.372 -1.33314e-16)
(2138.5 -84.1456 0)
(2186.08 -49.1577 7.63159e-17)
(2201.9 -15.9173 -8.03099e-17)
(2209.32 -5.20649 0)
(2214.6 -1.60571 3.53615e-20)
(2217.08 -0.964709 0)
(2217.7 -1.42299 0)
(2217.52 -0.667341 0)
(2217.48 -0.0189285 4.80586e-18)
(2217.59 0.791221 -4.80859e-18)
(2217.9 1.72646 -4.18583e-20)
(2217.24 1.23214 -3.53399e-20)
(2215.04 1.96134 0)
(2209.24 5.98408 0)
(2204.74 22.0275 0)
(2183.7 57.1685 -8.5934e-17)
(2133.94 98.4439 1.80448e-16)
(1937.72 151.578 -9.88034e-17)
(1735.12 458.675 -1.9628e-16)
(1204.47 949.582 1.13837e-16)
(1103.18 604.98 -8.238e-20)
(1183.99 -547.509 1.71392e-16)
(1038.16 -961.554 0)
(1167.22 -714.55 0)
(1455.1 -584.282 -1.2189e-16)
(1875.78 -163.571 1.67844e-16)
(2021.24 -68.9292 0)
(2120.86 -61.3593 1.58969e-20)
(2134.82 -39.0387 4.54841e-17)
(2144.83 -22.8711 -4.6568e-17)
(2150.32 -9.56806 0)
(2149.22 -1.04778 -1.14164e-17)
(2146.55 0.876892 1.14631e-17)
(2145.35 0.102775 -5.75429e-18)
(2146.54 -0.59988 5.76473e-18)
(2149.41 1.06267 4.02361e-20)
(2150.42 8.65684 -4.58392e-17)
(2145.31 21.7367 9.2347e-17)
(2135.61 41.4954 2.2241e-18)
(2116.7 42.588 -4.57264e-17)
(1993.94 61.4723 -1.3907e-16)
(1914.53 229.34 1.08599e-16)
(1294.68 698.589 7.7969e-20)
(1282.26 692.791 2.08734e-20)
(1165.19 948.606 1.66287e-16)
(1115.48 596.026 2.76383e-18)
(1237.13 -561.461 0)
(1061.58 -969.022 0)
(1142.21 -793.244 0)
(1076.07 -787.959 0)
(1173.67 -760.848 0)
(1506.88 -546.554 1.38432e-16)
(1849.81 -63.2752 -1.73135e-16)
(1864.2 22.3243 2.324e-19)
(1892.9 36.9573 -1.25676e-20)
(1905.41 13.6962 3.27466e-17)
(1893.39 -1.51583 -3.30005e-17)
(1878.25 -2.61586 -4.81895e-19)
(1870.61 -0.63803 -1.04874e-18)
(1877.83 1.41244 1.2746e-18)
(1893.11 2.6203 -3.27647e-17)
(1903.2 -8.95228 3.25482e-17)
(1890.53 -30.8263 2.07594e-19)
(1861.73 -8.95429 0)
(1857.95 112.276 0)
(1428.08 624.022 0)
(1281.44 730.057 -1.84533e-16)
(1126.2 803.434 -1.16899e-17)
(1246.24 738.932 1.68789e-16)
(1169.47 903.371 2.13686e-20)
(1148.91 560.172 2.26466e-20)
(1308.99 -552.267 0)
(1166.33 -843.024 4.21208e-20)
(1186.85 -759.923 0)
(1115.22 -772.185 -1.83958e-16)
(1105.24 -708.868 3.7975e-16)
(1024.55 -698.344 -1.87864e-16)
(1031.92 -587.504 0)
(1035.72 -504.394 -1.43642e-19)
(1009.59 -250.255 0)
(969.218 -46.8937 0)
(887.087 52.3948 -3.10613e-17)
(815.964 60.1425 3.0701e-17)
(768.522 2.21796 3.07514e-17)
(809.786 -56.4137 -3.13569e-17)
(887.487 -55.703 0)
(960.771 29.3325 -1.21742e-16)
(1008.11 233.321 1.16901e-16)
(1035.43 494.08 1.13015e-16)
(1088.62 562.031 -9.05019e-17)
(1045.12 704.01 0)
(1171.87 687.944 0)
(1163.64 774.375 -1.7487e-19)
(1267.63 715.921 -1.71558e-16)
(1230.34 801.129 3.84251e-16)
(1179.26 546.717 -1.90679e-16)
(1373.99 -554.474 -1.8273e-16)
(1282.31 -790.009 2.00541e-16)
(1276.49 -680.084 0)
(1159.54 -673.013 -2.21226e-16)
(1137.78 -593.939 -3.08296e-17)
(1019.1 -529.037 3.33932e-16)
(958.919 -403.443 -2.30812e-16)
(712.137 -214.172 1.17616e-16)
(494.336 -54.9316 0)
(326.566 12.3359 0)
(169.973 46.4938 -4.68064e-20)
(33.1079 31.7087 1.62321e-19)
(-31.3858 -3.92512 0)
(19.044 -37.5791 0)
(145.811 -58.1385 6.75019e-17)
(305.601 -37.3902 -6.78878e-17)
(477.244 32.3165 -1.27861e-16)
(707.052 183.275 2.50629e-16)
(1008.85 395.993 -2.23647e-17)
(1059.61 538.411 -1.26949e-16)
(1182.37 576.367 0)
(1186.81 662.464 0)
(1307.66 647.259 -1.88963e-16)
(1301.38 728.405 2.1479e-16)
(1251.23 555.857 -5.04082e-20)
(1494.93 -516.247 1.77283e-16)
(1401.41 -616.03 -1.04424e-19)
(1406.67 -504.66 1.08573e-16)
(1341.07 -488.785 -9.16297e-17)
(1282.02 -405.784 -5.13856e-20)
(1134.89 -295.019 1.07876e-19)
(1049.61 -151.83 1.23989e-16)
(826.239 -116.234 -1.80087e-16)
(651.734 -62.1608 6.35666e-17)
(537.975 -88.5135 0)
(472.397 -80.393 -3.21249e-17)
(437.359 -67.0341 3.33491e-17)
(429.513 -10.6092 0)
(430.753 52.9417 5.97746e-20)
(457.477 76.0006 -3.35431e-17)
(523.767 78.3772 3.18069e-17)
(634.981 65.7363 0)
(825.282 108.514 -1.18127e-16)
(1054.63 158.147 1.23016e-16)
(1144.52 299.805 1.04134e-16)
(1298.31 398.97 -2.09126e-16)
(1347.63 484.4 1.09922e-16)
(1431.55 528.965 0)
(1438.42 631.439 1.84871e-16)
(1394.33 510.682 -6.83349e-18)
(1643.43 -411.675 -4.85241e-18)
(1581.12 -394.347 9.54899e-17)
(1456.37 -259.439 -4.27477e-17)
(1299.68 -148.23 -6.02764e-17)
(1242.1 -83.7989 8.12674e-17)
(1159.59 -29.7683 -5.61628e-17)
(1123 -82.5097 5.66908e-17)
(1050.3 -149.198 -5.83725e-17)
(966.985 -169.025 5.18808e-19)
(864.326 -153.41 3.07015e-17)
(776.192 -108.997 1.5398e-17)
(709.06 -54.7317 -3.72668e-20)
(686.276 2.83225 -1.55725e-17)
(714.281 58.7166 -5.84684e-20)
(784.112 107.449 -7.34445e-20)
(875.013 141.466 -1.91288e-18)
(972.374 154.717 -4.31908e-20)
(1061.69 133.934 5.4757e-18)
(1115.2 58.0295 -3.57432e-18)
(1166.48 31.8373 0)
(1274.34 103.077 1.26024e-17)
(1322.72 155.019 -3.87287e-17)
(1490.03 271.017 4.84268e-17)
(1558.66 368.594 -6.71324e-17)
(1560.84 394.461 6.67403e-17)
(1765.58 -285.357 -1.27673e-19)
(1720.97 31.735 -1.42203e-19)
(1625.21 87.4403 1.53581e-19)
(1512.64 18.2452 -6.54703e-21)
(1357.54 41.0548 -1.80558e-19)
(1278.57 31.6727 -2.02858e-19)
(1251.58 -33.5401 -7.76297e-21)
(1225.79 -88.7906 0)
(1159.16 -126.535 0)
(1061.17 -119.585 5.92437e-17)
(964.134 -88.0514 -5.98059e-17)
(890.358 -45.3605 -7.81086e-21)
(862.167 -1.83501 7.82088e-21)
(883.845 41.3657 -7.80667e-18)
(951.969 83.1199 7.54207e-18)
(1048.19 114.419 0)
(1147.5 124.544 0)
(1218.54 96.1281 -5.59065e-17)
(1238.75 43.646 5.60235e-17)
(1273.91 -26.9724 -1.91629e-19)
(1371.28 -58.7581 0)
(1528.57 -33.9214 0)
(1645.22 -64.2941 -1.54066e-19)
(1683.63 -59.5306 -1.47201e-19)
(1698.64 198.759 1.70963e-16)
(1524.34 153.23 -2.11914e-16)
(1506.4 466.506 -2.63781e-16)
(1579.85 465.863 1.47298e-16)
(1573.74 323.786 0)
(1470.15 230.446 2.30974e-19)
(1404.35 151.136 1.10102e-16)
(1359.28 66.6358 -2.17219e-16)
(1335.22 4.52771 1.07671e-16)
(1283.8 -41.2975 -1.14532e-16)
(1204.33 -53.715 1.12949e-16)
(1118 -47.1856 2.94954e-17)
(1049.65 -26.1507 -3.68492e-17)
(1022.65 1.14181 -7.4646e-18)
(1043.61 28.3553 1.50105e-17)
(1107.92 49.3971 0)
(1194.32 56.6266 0)
(1276.32 45.1038 1.10082e-16)
(1332.41 4.82539 -2.20802e-16)
(1361.72 -59.3954 1.11831e-16)
(1421.12 -153.873 2.39886e-19)
(1483.92 -252.965 1.87342e-16)
(1584.42 -337.103 -5.29618e-17)
(1589.9 -477.811 -5.34973e-16)
(1498.66 -518.256 6.54693e-16)
(1372 -139.764 -3.19572e-16)
(800.543 634.693 1.37096e-19)
(1357.71 861.778 -1.93789e-16)
(1565.23 749.273 1.43487e-16)
(1583.22 586.926 0)
(1541.24 397.958 0)
(1489.26 271.703 0)
(1442.5 171.824 0)
(1413.11 100.895 0)
(1372.09 45.7485 -4.98376e-17)
(1312.28 13.1232 9.93438e-17)
(1243.6 -3.49069 -7.58101e-17)
(1187.63 -4.04253 2.86319e-17)
(1166.18 4.21567 -3.21596e-18)
(1186.19 11.9453 1.37587e-20)
(1240.99 10.4039 -5.01356e-17)
(1309.81 -6.66685 5.08555e-17)
(1371.49 -40.3172 0)
(1417.55 -94.8756 0)
(1456 -170.558 -1.79898e-16)
(1511.69 -281.416 1.91525e-16)
(1556.49 -419.088 -1.77387e-19)
(1578.23 -608.915 7.2752e-20)
(1538.65 -769.127 -9.22134e-20)
(1358.13 -839.933 -8.75934e-20)
(709.489 -602.97 0)
(741.76 519.751 -1.87077e-16)
(1399.71 822.356 1.8025e-16)
(1519.22 908.894 -1.40549e-19)
(1611.38 726.679 1.60444e-16)
(1584.2 556.757 -1.36738e-16)
(1549.17 397.103 0)
(1510.58 271.936 -8.44642e-17)
(1480.2 187.075 7.87927e-17)
(1447.96 120.447 -4.34816e-17)
(1405.15 70.8106 8.63513e-17)
(1353.99 34.9936 -4.31354e-17)
(1311.42 14.8788 1.62056e-19)
(1295.5 4.0244 0)
(1312.52 -7.43312 2.20595e-17)
(1355.32 -29.011 2.08449e-17)
(1406.79 -66.0909 -4.39384e-17)
(1451.85 -118.234 -8.09237e-17)
(1489.1 -188.4 8.54883e-17)
(1526.22 -278.526 -7.61916e-17)
(1568.33 -413.717 8.23288e-17)
(1596.66 -578.7 8.41064e-20)
(1606.94 -749.579 -7.97763e-20)
(1496.98 -921.994 0)
(1388.3 -819.806 7.24396e-20)
(697.004 -517.763 0)
(894.33 458.038 1.7349e-16)
(1421.99 785.461 -1.63414e-16)
(1516.32 913.998 5.3475e-20)
(1623.56 800.791 0)
(1607.58 661.338 0)
(1594.31 504.269 -7.75981e-21)
(1564.04 376.114 0)
(1539.73 278.265 7.73679e-20)
(1516.09 194.489 0)
(1486.97 125.825 3.86975e-17)
(1450.65 72.246 -5.72255e-17)
(1419.8 33.3647 2.874e-17)
(1408.11 3.48822 -9.65572e-18)
(1420.53 -26.407 0)
(1452.39 -65.7551 0)
(1489.87 -121.018 3.64347e-17)
(1522.53 -192.182 -1.08467e-16)
(1550.69 -276.33 7.51878e-17)
(1579.54 -376.414 -6.57183e-17)
(1611.77 -512.061 7.22568e-17)
(1618.48 -670.996 0)
(1632.38 -812.297 0)
(1504.01 -920.432 0)
(1416.34 -784.272 -9.30019e-21)
(869.434 -438.664 -1.92612e-16)
(1020.79 445.507 -3.29069e-20)
(1453.5 714.623 1.27425e-16)
(1525.2 884.561 -1.23981e-16)
(1623.72 809.199 0)
(1625.23 714.303 0)
(1622.16 575.886 8.14067e-21)
(1604.82 452.842 6.66519e-17)
(1590.36 348.378 -6.11515e-17)
(1576.05 254.916 3.00204e-20)
(1557.11 173.346 3.06301e-20)
(1532.91 105.767 3.10487e-20)
(1512.28 50.4434 -9.07793e-21)
(1504.68 3.67872 -9.0921e-21)
(1513.6 -44.0457 1.68891e-17)
(1536.12 -100.221 -1.73158e-17)
(1562.04 -169.075 3.94705e-20)
(1583.94 -251.971 3.86966e-20)
(1601.65 -345.594 0)
(1620.49 -453.205 -5.88851e-17)
(1639.54 -581.283 6.48885e-17)
(1635.18 -722.093 0)
(1630.18 -819.568 -1.14864e-16)
(1515.72 -888.927 1.14705e-16)
(1440.93 -717.919 7.81928e-21)
(1016.25 -446.667 -1.74655e-16)
(1137.31 458.637 3.82607e-20)
(1478.18 650.122 0)
(1535.32 825.947 0)
(1621.08 802.066 -5.37046e-17)
(1628.71 734.28 5.60736e-17)
(1640.06 627.278 0)
(1636.07 512.492 6.10114e-17)
(1631.36 404.405 -5.60336e-17)
(1626.23 303.543 3.11472e-17)
(1616.31 212.642 -2.96441e-17)
(1602.55 133.142 1.5645e-17)
(1590.44 63.7186 -1.54141e-17)
(1585.8 1.22208 0)
(1591.66 -62.2921 -1.52933e-17)
(1604.96 -132.62 1.57042e-17)
(1620.28 -213.334 -3.22784e-20)
(1631.9 -305.992 -3.1754e-20)
(1639.71 -408.174 5.3886e-20)
(1647.37 -519.519 5.46309e-17)
(1651.36 -637.688 -5.97298e-17)
(1637.68 -745.452 -5.1327e-20)
(1626.36 -812.251 -5.1451e-20)
(1532.42 -830.122 0)
(1472.36 -662.691 -6.64129e-20)
(1116.81 -443.695 3.82162e-20)
(1183.96 433.684 1.41882e-22)
(1497.19 575.988 0)
(1560.19 748.995 1.09939e-22)
(1615.8 784.03 5.16532e-20)
(1631.12 734.626 -9.69756e-23)
(1650.92 653.933 -5.42712e-17)
(1658.9 552.556 5.05475e-17)
(1664.21 446.434 0)
(1667.85 343.341 -5.73279e-20)
(1666.73 246.45 -9.88942e-23)
(1661.72 157.438 -9.98181e-23)
(1656.58 76.43 5.918e-20)
(1654.35 1.03347 0)
(1657.45 -74.9774 0)
(1663.38 -156.473 -9.96337e-23)
(1669.7 -245.619 -9.87032e-23)
(1672.31 -342.905 -2.60608e-17)
(1671.05 -446.871 7.88008e-17)
(1667.84 -554.667 -5.51365e-17)
(1659.61 -660.746 0)
(1637.6 -742.598 -4.9842e-17)
(1618.09 -792.158 5.14552e-17)
(1555.94 -753.388 1.09803e-22)
(1490.45 -571.615 5.98026e-20)
(1180.08 -450.073 1.40057e-22)
(1240.89 405.126 3.01962e-18)
(1511.11 484.529 1.70407e-17)
(1575.19 668.734 1.25165e-16)
(1613.01 747.273 -4.88617e-17)
(1637.59 727.034 4.95193e-17)
(1663.14 659.997 -4.92421e-17)
(1679.44 574.593 4.68346e-17)
(1692.54 472.488 -2.52263e-17)
(1702.32 368.782 2.37759e-17)
(1708.33 269.507 1.02411e-22)
(1710.58 174.758 1.03603e-22)
(1711.13 85.8005 -1.04226e-22)
(1710.96 1.07583 6.29697e-18)
(1711.84 -84.0858 6.16415e-18)
(1712.09 -173.294 -1.28743e-17)
(1710.74 -268.369 1.02454e-22)
(1705.73 -368.738 4.75598e-17)
(1697.31 -473.957 -9.73931e-17)
(1685.23 -578.265 5.01228e-17)
(1669.43 -666.299 0)
(1639.96 -735.315 -9.28667e-23)
(1610.82 -756.716 9.67478e-23)
(1566.17 -675.912 -1.02761e-22)
(1508.16 -486.822 -1.24853e-16)
(1234.95 -386.197 1.27299e-16)
(1240.43 359.591 1.18288e-19)
(1497.33 414.779 0)
(1576.55 596.061 0)
(1611.77 704.15 4.69657e-20)
(1649.8 711.576 8.93894e-20)
(1676.57 656.312 0)
(1701.33 581.298 4.56334e-17)
(1720.39 487.5 -4.3375e-17)
(1735.12 386.022 4.18434e-20)
(1745.6 283.767 -4.22541e-20)
(1751.93 183.455 -1.16916e-17)
(1755.43 87.9825 1.15261e-17)
(1756.11 -3.67492 2.98768e-18)
(1754.83 -95.7381 -2.91766e-18)
(1750.96 -190.977 1.13392e-17)
(1744.73 -290.418 -3.3877e-17)
(1734.59 -392.724 2.32247e-17)
(1720.5 -494.778 -4.617e-20)
(1701.95 -589.635 4.19287e-20)
(1676.97 -665.241 -4.50771e-17)
(1647.37 -718.166 -2.97488e-18)
(1614.08 -704.107 -7.85105e-18)
(1578.09 -586.163 4.79093e-17)
(1471.34 -414.345 6.12392e-20)
(1226.97 -359.278 5.76662e-20)
(1208.12 343.909 1.20837e-16)
(1443.45 354.957 -1.10415e-16)
(1586.85 461.064 0)
(1623.67 637.001 -4.24925e-17)
(1655.87 685.855 4.20913e-18)
(1688.44 651.464 4.24926e-17)
(1718.24 585.069 4.15743e-17)
(1742.78 499.907 -4.02602e-17)
(1762.08 401.848 -4.28407e-20)
(1776.97 300.713 -2.13655e-17)
(1787.14 198.377 1.00526e-17)
(1793.22 98.5771 1.04827e-17)
(1795.01 1.95898 -4.42563e-20)
(1793.22 -94.9897 0)
(1787.38 -194.952 0)
(1777.64 -297.054 0)
(1763.41 -398.274 4.26766e-20)
(1744.85 -497.202 9.60588e-21)
(1720.8 -583.917 -5.08919e-20)
(1689.65 -653.477 0)
(1653.98 -693.265 4.15621e-20)
(1617.54 -651.793 1.1222e-20)
(1583.01 -472.891 -6.13772e-20)
(1448.67 -351.888 -1.10286e-16)
(1206.83 -341.113 1.19501e-16)
(1174.83 314.581 5.79378e-17)
(1440.36 285.525 -1.01863e-16)
(1562.5 358.117 9.96344e-17)
(1625.84 575.227 -5.19648e-17)
(1658.85 650.594 -3.88263e-17)
(1701.79 634.649 4.04847e-17)
(1732.44 574.752 1.91104e-17)
(1762.89 497.141 -1.88975e-17)
(1785.5 403.916 9.67923e-18)
(1802.49 302.539 -1.91683e-17)
(1814.52 198.654 1.44496e-17)
(1821.84 96.9971 -6.0782e-18)
(1823.92 -2.05919 1.22069e-18)
(1821.23 -101.447 -3.64797e-20)
(1813.46 -202.611 1.9111e-17)
(1801.31 -305.464 -1.9659e-17)
(1784.59 -406.571 3.57207e-20)
(1762.12 -500.044 3.78452e-17)
(1732.03 -577.378 2.23125e-19)
(1701.23 -637.034 -3.86838e-17)
(1656.56 -654.474 0)
(1619.29 -572.373 5.29512e-17)
(1544.91 -354.73 -4.35603e-17)
(1434.25 -281.665 -1.06589e-16)
(1149.62 -296.066 3.99302e-18)
(1104.57 250.373 -5.45331e-17)
(1412.1 219.591 5.14211e-17)
(1515.68 255.177 2.5168e-20)
(1616.67 474.437 -6.28604e-20)
(1658.42 606.782 1.86655e-20)
(1711.78 614.464 3.57769e-17)
(1745.58 561.307 -1.86508e-17)
(1776.35 486.938 -1.78879e-17)
(1802.54 401.482 3.64492e-20)
(1820.48 305.034 -3.67793e-20)
(1832.77 201.634 1.69838e-20)
(1840.02 98.391 -1.70398e-20)
(1842.1 -2.5633 0)
(1839.11 -103.863 3.18371e-21)
(1831.1 -207.206 -8.85321e-18)
(1818.54 -309.948 9.14972e-18)
(1800.45 -405.998 -1.77227e-17)
(1774.21 -491.214 8.3429e-20)
(1743.73 -565.46 1.7874e-17)
(1709.56 -616.363 -5.36633e-20)
(1659.29 -603.201 -4.36038e-17)
(1618.17 -460.176 3.85051e-17)
(1505.19 -247.549 0)
(1394.64 -214.461 -5.11975e-17)
(1079.9 -239.677 5.3325e-17)
(969.767 200.364 0)
(1353.38 174.319 -4.88698e-17)
(1497.14 170.967 4.88972e-17)
(1606.58 341.976 1.99177e-20)
(1664.6 533.94 1.81381e-20)
(1711.71 582.253 -3.39694e-17)
(1753.86 547.158 3.48388e-17)
(1786.32 479.871 1.67217e-17)
(1813.29 397.86 1.64921e-19)
(1834.53 305.756 -1.66735e-17)
(1848.62 204.611 -1.72095e-20)
(1856.45 101.716 1.92882e-20)
(1858.83 0.168637 0)
(1856.12 -101.607 3.45654e-20)
(1848.08 -204.449 -1.7208e-20)
(1833.87 -305.49 8.32992e-18)
(1812.71 -397.222 -8.42451e-18)
(1785.92 -479.667 -1.65874e-20)
(1753.14 -547.005 -1.87393e-20)
(1710.23 -584.932 1.70619e-20)
(1660.7 -541.065 -4.3838e-17)
(1604.45 -347.287 -1.54994e-17)
(1499.42 -173.155 4.05305e-17)
(1351.72 -172.512 0)
(969.844 -191.726 4.52407e-17)
(923.661 187.24 -7.90851e-17)
(1352.32 157.465 4.61346e-17)
(1512.6 136.518 3.85992e-17)
(1609.09 266.396 -4.92341e-17)
(1665.25 472.05 0)
(1707.14 542.179 -2.04531e-21)
(1751.82 519.625 0)
(1788.06 461.247 -1.978e-21)
(1817.35 383.803 -1.95456e-21)
(1839.35 294.898 0)
(1853.9 197.212 0)
(1862.16 97.0593 -1.93113e-21)
(1864.97 -2.11911 0)
(1861.73 -101.571 0)
(1852.98 -201.562 -7.62323e-18)
(1838.11 -298.594 7.8645e-18)
(1815.99 -386.557 -1.95577e-21)
(1786.38 -462.909 -1.62094e-17)
(1749.77 -521.045 1.59918e-17)
(1705.55 -543.093 0)
(1662.07 -470.996 4.40268e-17)
(1604.44 -265.979 -8.50733e-17)
(1508.66 -138.384 8.36834e-17)
(1335.55 -156.607 -9.92138e-20)
(909.961 -188.528 -3.85446e-17)
(908.947 181.933 8.66003e-21)
(1350.13 155.91 -1.0411e-20)
(1515.84 140.335 0)
(1612.46 232.392 0)
(1658.81 425.758 0)
(1699.04 506.193 8.00131e-21)
(1740.94 491.698 0)
(1775.66 436.97 -7.50882e-21)
(1806.88 365.452 0)
(1832.11 283.085 -7.33796e-21)
(1849.05 190.945 0)
(1858.17 94.9289 -1.7836e-18)
(1861.19 -1.78156 1.77083e-18)
(1857.86 -98.8161 0)
(1848.24 -194.948 7.26953e-18)
(1830.99 -286.779 -1.50424e-17)
(1805.59 -368.561 7.53474e-18)
(1774.43 -439.446 0)
(1739.81 -493.383 1.63248e-17)
(1699.08 -505.666 -1.55124e-17)
(1659.66 -424.807 4.29604e-17)
(1613.58 -233.45 -3.45583e-17)
(1512.71 -141.129 0)
(1343.9 -155.325 0)
(902.716 -182.839 0)
(895.216 181.534 -7.82315e-21)
(1337.9 153.337 9.97419e-21)
(1513.17 150.012 0)
(1599.92 206.338 0)
(1653.92 384.924 0)
(1688.86 473.202 -7.70516e-21)
(1728.18 467.941 0)
(1759.39 417.041 7.21246e-21)
(1787.7 348.349 0)
(1812.02 270.113 -7.26552e-18)
(1831.91 184.415 7.21966e-18)
(1843.55 93.3835 -6.97346e-21)
(1847.2 0.335057 6.99771e-21)
(1843.17 -92.9066 6.9756e-21)
(1831.28 -183.881 0)
(1811.52 -269.257 0)
(1787.15 -347.797 7.14488e-21)
(1758.71 -417.182 -1.50951e-17)
(1727.4 -469.658 1.47618e-17)
(1686.97 -477.226 0)
(1651.53 -392.979 8.36914e-21)
(1597.53 -211.261 0)
(1511.38 -148.813 0)
(1339.83 -152.841 0)
(895.087 -183.709 0)
(885.734 180.088 -2.92617e-17)
(1333.15 144.907 4.15791e-17)
(1505.92 166.595 0)
(1569.01 183.471 -1.91556e-20)
(1630.61 345.385 0)
(1670.35 447.345 -1.48857e-17)
(1713.6 449.853 3.00207e-17)
(1742.58 400.322 -1.46854e-17)
(1767.16 332.541 -7.01679e-18)
(1788.27 255.456 7.02296e-18)
(1805.19 172.439 3.39503e-21)
(1815.41 86.0741 9.01165e-19)
(1818.77 -1.52566 -8.66996e-19)
(1815.17 -89.2492 6.9189e-18)
(1804.84 -175.479 -6.95299e-18)
(1787.83 -258.159 0)
(1766.49 -335.198 -1.38261e-20)
(1741.7 -402.796 0)
(1712.72 -451.644 0)
(1669.64 -446.903 -1.78077e-17)
(1628.43 -341.161 1.57472e-17)
(1566.16 -179.784 0)
(1499.82 -162.423 4.08577e-17)
(1324.23 -145.213 1.14409e-18)
(878.393 -184.251 -6.04889e-17)
(888.533 175.859 2.93978e-17)
(1306.43 124.834 1.89371e-20)
(1483.59 167.531 3.7831e-17)
(1532.13 167.175 -2.43586e-17)
(1564.09 279.952 -2.00247e-17)
(1635.54 399.175 0)
(1685.38 426.542 6.79132e-21)
(1721.27 387.237 1.39265e-17)
(1746.31 323.375 -1.40106e-17)
(1764.89 248.384 0)
(1778.67 167.152 0)
(1787.04 83.0549 -1.96136e-20)
(1789.78 -1.70418 2.62373e-20)
(1786.78 -86.5947 1.31662e-20)
(1778.15 -170.684 3.39435e-18)
(1764.07 -251.607 -3.39473e-18)
(1745.26 -326.351 6.61211e-21)
(1720.12 -390.031 1.45883e-17)
(1683.9 -428.87 -2.99505e-17)
(1633.49 -399.572 1.48482e-17)
(1558.77 -278.808 -1.62627e-20)
(1526.25 -164.975 0)
(1477.63 -164.525 1.98144e-20)
(1300.24 -126.548 4.11821e-17)
(883.688 -173.738 -5.79875e-17)
(926.212 181.461 -2.94727e-17)
(1249.37 134.286 -3.49279e-17)
(1428.19 178.626 3.90855e-17)
(1476.22 173.819 1.6722e-17)
(1497.96 236.322 -1.90113e-17)
(1548.23 314.029 0)
(1627.12 370.131 3.24918e-21)
(1681.6 360.646 -1.03957e-20)
(1714.83 309.643 6.80508e-18)
(1737.85 241.927 -1.3559e-17)
(1752.93 165.366 6.7086e-18)
(1761.59 83.7378 1.65478e-18)
(1764.52 -0.0993545 -1.55018e-18)
(1761.62 -84.1229 1.54541e-18)
(1752.97 -165.975 -1.67217e-18)
(1737.83 -242.554 0)
(1714.82 -310.618 1.00781e-20)
(1681.67 -362.441 -3.58329e-21)
(1625.98 -371.62 -1.6192e-17)
(1546.64 -313.113 1.45089e-17)
(1495.94 -234.308 0)
(1472.86 -170.762 0)
(1424.89 -177.309 -4.6899e-21)
(1247.11 -133.231 -3.87675e-17)
(926.705 -180.728 -2.4803e-18)
(982.902 200.895 -1.34436e-17)
(1199.1 181 1.78873e-17)
(1353.14 225.696 4.23665e-21)
(1409.54 213.083 0)
(1444.42 238.752 1.51478e-17)
(1469.63 268.657 -1.67048e-17)
(1519.13 283.295 3.41382e-21)
(1587.46 288.267 3.33616e-21)
(1647.55 267.372 1.41904e-20)
(1688.14 217.162 -1.68487e-18)
(1710.86 150.717 8.49688e-19)
(1722.76 76.6171 1.62655e-18)
(1726.66 -1.3018 -8.29075e-19)
(1722.68 -79.2422 3.33457e-18)
(1710.62 -153.214 -3.3318e-18)
(1687.75 -219.141 0)
(1647.59 -269.014 1.09227e-20)
(1587.58 -289.491 -1.50502e-17)
(1519.45 -284.738 1.38555e-17)
(1469.99 -269.303 3.62143e-21)
(1444.81 -238.441 0)
(1407.83 -213.101 0)
(1348.68 -227.186 4.22753e-21)
(1192.52 -181.672 -3.54181e-17)
(985.677 -200.411 2.70238e-17)
(1049.69 223.653 1.43909e-20)
(1157.41 246.894 0)
(1276.32 301.153 -7.36698e-21)
(1336.7 284.263 -1.41758e-17)
(1388.61 284.318 1.6397e-17)
(1419.79 277.812 -1.42038e-17)
(1447.48 253.999 1.5149e-17)
(1481.46 226.657 -6.71498e-18)
(1526.36 194.995 7.18005e-18)
(1572.61 158.721 -3.35309e-18)
(1609.31 113.242 3.41008e-18)
(1630.14 58.0632 -1.64727e-18)
(1636.84 -1.92021 1.88802e-18)
(1629.67 -61.9931 -2.21855e-19)
(1608.23 -117.212 3.41743e-18)
(1570.9 -162.358 -6.83122e-18)
(1524.14 -198.089 -3.86345e-18)
(1479.21 -229.552 6.69809e-18)
(1445.24 -257.038 1.34705e-20)
(1416.94 -280.101 -7.34299e-21)
(1385.34 -285.461 0)
(1333.57 -285.57 0)
(1270.99 -303.795 0)
(1152.38 -249.659 -1.66249e-17)
(1047.41 -222.913 1.34585e-17)
(1107.71 230.096 -1.80169e-21)
(1115.04 308.946 0)
(1189.13 381.228 8.73413e-21)
(1247.96 369.57 -6.91945e-21)
(1309.11 348.479 -6.85645e-21)
(1356.52 320.423 0)
(1391.72 279.53 -6.61892e-21)
(1418.63 230.929 6.74504e-18)
(1445.35 182.007 -6.9896e-18)
(1472.17 133.519 0)
(1496.2 86.5695 1.75138e-21)
(1512.89 42.4394 0)
(1518.82 0.138414 0)
(1512.95 -42.1905 1.69721e-18)
(1496.22 -86.3051 -1.66327e-18)
(1472.22 -133.154 -6.14786e-21)
(1445.93 -181.374 -1.73334e-21)
(1420.22 -230.289 6.43906e-21)
(1394.07 -279.492 -7.19841e-18)
(1359.02 -321.11 6.84802e-18)
(1311.93 -349.614 -1.48074e-17)