/*--------------------------------*- C++ -*----------------------------------*\
| =========                 |                                                 |
| \\      /  F ield         | OpenFOAM: The Open Source CFD Toolbox           |
|  \\    /   O peration     | Version:  2112                                  |
|   \\  /    A nd           | Website:  www.openfoam.com                      |
|    \\/     M anipulation  |                                                 |
\*---------------------------------------------------------------------------*/
FoamFile
{
    version     2.0;
    format      ascii;
    arch        "LSB;label=32;scalar=64";
    class       volScalarField;
    location    "0.00867";
    object      p;
}
// * * * * * * * * * * * * * * * * * * * * * * * * * * * * * * * * * * * * * //

dimensions      [1 -1 -2 0 0 0 0];

internalField   nonuniform List<scalar> 
13875
(
951600
984307
973580
975944
973657
974562
974958
974642
975090
975173
975051
975039
974706
974788
974831
974696
974631
975331
975175
973974
973384
975648
972332
982632
945649
733800
659576
672175
677198
669249
669699
677232
678818
679152
678915
678842
678558
670288
669176
670411
678026
679294
679308
677536
669948
669573
676914
672249
657206
731021
736889
635529
664299
653670
649315
648219
648360
649290
649248
647903
647478
648978
645376
645308
645244
648907
646252
648229
647923
647639
648540
652163
661925
632195
733711
743533
636173
665183
653832
649625
648407
647343
646317
645220
644092
643471
644403
645410
645410
645273
644556
643521
644623
646117
647789
648822
652288
662673
632803
739291
757364
639179
667736
654548
650488
648918
647473
646378
645264
644141
643513
644434
645533
645673
645393
644587
643618
644705
646238
648222
649604
652880
664954
635447
750306
759041
647834
673503
656532
652296
649962
647887
646601
645433
644324
643659
644555
645792
646200
645651
644713
643901
644972
646638
649148
651277
654751
670529
643181
751744
765038
668337
685726
661456
655954
651989
648836
647153
645863
644765
644063
644917
646348
646774
646151
645015
644527
645681
647716
651205
654913
660350
682055
665870
755791
791199
718353
711633
674787
663704
656315
651077
648526
646967
645829
645038
645721
647434
647931
647210
645820
645807
647173
649961
655318
662288
673135
707056
715355
781677
908574
827873
766462
704385
679135
664842
655812
651544
649427
648141
647205
647564
649628
650259
649407
647789
648416
650299
654580
663398
676944
700891
760202
823142
909502
1.5239e+06
1.02936e+06
833457
739267
697442
675116
662584
656780
654114
652638
651675
651674
654001
654818
653948
652284
653360
655835
661577
673919
695767
736819
829421
1.02529e+06
1.51708e+06
2.90494e+06
1.39242e+06
957008
796126
725690
691505
674896
667114
663485
661606
660518
660114
662332
663454
662897
661682
662950
666206
673646
689634
722332
789401
941152
1.35132e+06
2.86061e+06
5.60268e+06
2.34366e+06
1.28617e+06
936212
789407
728023
701389
689099
683233
680313
678737
677985
679482
680923
681147
681339
683268
688565
700662
727074
786988
926027
1.25243e+06
2.27449e+06
5.57459e+06
5.38812e+06
4.83807e+06
2.31086e+06
1.40033e+06
979358
828188
766834
741171
729181
723319
720482
719222
719352
720915
722545
725300
730578
742298
769101
834721
990126
1.38722e+06
2.18295e+06
4.87568e+06
5.34333e+06
4.83795e+06
4.64601e+06
4.71013e+06
3.99064e+06
1.63997e+06
1.1378e+06
955559
885336
853200
837708
830654
827419
826024
827612
831591
840057
857578
893996
975568
1.20164e+06
1.83505e+06
4.03232e+06
4.68931e+06
4.7181e+06
4.76389e+06
4.02688e+06
4.12601e+06
4.49653e+06
4.25671e+06
4.00763e+06
2.52364e+06
1.66324e+06
1.3761e+06
1.26369e+06
1.21592e+06
1.19647e+06
1.18842e+06
1.18546e+06
1.18721e+06
1.19462e+06
1.21455e+06
1.26384e+06
1.38329e+06
1.6942e+06
2.68619e+06
4.11484e+06
4.24454e+06
4.51157e+06
4.28619e+06
4.26796e+06
3.53127e+06
3.45911e+06
3.92736e+06
4.05839e+06
4.26829e+06
4.33996e+06
3.69514e+06
3.05413e+06
2.84683e+06
2.68014e+06
2.57374e+06
2.5329e+06
2.51755e+06
2.52267e+06
2.55182e+06
2.63446e+06
2.84447e+06
3.04261e+06
3.75515e+06
4.38971e+06
4.23654e+06
4.07881e+06
4.05398e+06
3.57174e+06
3.74893e+06
2.55056e+06
2.69331e+06
3.0625e+06
3.49819e+06
4.20236e+06
5.13443e+06
6.78789e+06
7.59436e+06
7.95417e+06
8.05574e+06
8.12101e+06
8.13297e+06
8.14625e+06
8.13523e+06
8.13443e+06
8.07661e+06
7.97657e+06
7.67129e+06
6.80171e+06
5.10264e+06
4.19906e+06
3.56076e+06
3.15043e+06
2.81791e+06
2.70446e+06
1.43542e+06
1.72264e+06
2.31751e+06
3.00092e+06
4.1713e+06
5.58199e+06
6.76971e+06
7.41633e+06
7.66069e+06
7.63464e+06
7.55727e+06
7.49295e+06
7.47587e+06
7.49382e+06
7.5626e+06
7.66444e+06
7.72475e+06
7.48557e+06
6.80061e+06
5.57071e+06
4.11428e+06
2.93212e+06
2.19311e+06
1.62259e+06
1.34525e+06
695747
1.029e+06
1.70966e+06
2.60536e+06
4.08445e+06
5.14996e+06
5.82976e+06
6.33696e+06
6.50493e+06
6.47789e+06
6.43669e+06
6.45071e+06
6.47297e+06
6.47332e+06
6.46375e+06
6.52572e+06
6.60161e+06
6.47704e+06
6.04775e+06
5.38304e+06
4.11491e+06
2.6696e+06
1.72776e+06
1.04241e+06
704867
383056
617868
1.13728e+06
2.20768e+06
3.63509e+06
4.34878e+06
4.68132e+06
5.01861e+06
5.24109e+06
5.39728e+06
5.54139e+06
5.65476e+06
5.69467e+06
5.66886e+06
5.56047e+06
5.40605e+06
5.23802e+06
5.01751e+06
4.7385e+06
4.43189e+06
3.6676e+06
2.19881e+06
1.13237e+06
607778
374354
953561
977222
1.17025e+06
1.89159e+06
2.89703e+06
3.38519e+06
3.71759e+06
4.10623e+06
4.42661e+06
4.65691e+06
4.83304e+06
4.9396e+06
4.96458e+06
4.94102e+06
4.82932e+06
4.63289e+06
4.36847e+06
4.03165e+06
3.68295e+06
3.40641e+06
2.87493e+06
1.85903e+06
1.14557e+06
969176
959327
1.01273e+06
974708
1.15505e+06
1.60505e+06
2.1699e+06
2.61755e+06
3.02462e+06
3.46006e+06
3.79469e+06
4.03099e+06
4.19863e+06
4.2878e+06
4.30291e+06
4.28138e+06
4.18468e+06
3.99638e+06
3.72768e+06
3.37357e+06
2.93696e+06
2.60471e+06
2.12852e+06
1.55999e+06
1.12208e+06
944585
985312
1.12289e+06
1.0143e+06
1.1295e+06
1.34188e+06
1.6915e+06
2.0819e+06
2.52841e+06
2.95734e+06
3.26297e+06
3.48177e+06
3.62818e+06
3.70057e+06
3.71443e+06
3.68978e+06
3.60582e+06
3.44015e+06
3.19918e+06
2.89368e+06
2.42237e+06
2.05956e+06
1.65438e+06
1.30956e+06
1.10023e+06
1.0071e+06
1.14005e+06
1.32086e+06
1.14708e+06
1.13249e+06
1.18811e+06
1.43892e+06
1.77572e+06
2.13494e+06
2.53084e+06
2.80141e+06
3.00309e+06
3.12556e+06
3.19214e+06
3.20524e+06
3.18047e+06
3.10417e+06
2.9611e+06
2.74388e+06
2.47341e+06
2.05982e+06
1.73606e+06
1.39395e+06
1.15243e+06
1.10749e+06
1.15925e+06
1.3114e+06
1.37771e+06
1.28027e+06
1.14108e+06
1.12835e+06
1.29347e+06
1.55494e+06
1.83725e+06
2.16662e+06
2.40006e+06
2.58025e+06
2.69506e+06
2.75241e+06
2.76615e+06
2.74256e+06
2.67814e+06
2.55112e+06
2.35605e+06
2.12251e+06
1.78798e+06
1.51433e+06
1.24579e+06
1.10752e+06
1.12093e+06
1.28679e+06
1.36379e+06
1.43586e+06
1.38629e+06
1.15833e+06
1.12906e+06
1.20278e+06
1.3944e+06
1.60659e+06
1.87499e+06
2.07155e+06
2.22802e+06
2.3313e+06
2.38246e+06
2.39499e+06
2.3747e+06
2.31638e+06
2.2022e+06
2.03387e+06
1.83619e+06
1.57377e+06
1.36746e+06
1.16508e+06
1.10797e+06
1.13744e+06
1.37323e+06
1.4094e+06
1.47832e+06
1.41852e+06
1.17797e+06
1.12922e+06
1.14815e+06
1.26925e+06
1.42667e+06
1.63488e+06
1.79757e+06
1.92991e+06
2.01984e+06
2.06381e+06
2.07784e+06
2.0579e+06
2.00614e+06
1.90812e+06
1.76414e+06
1.60308e+06
1.39642e+06
1.24348e+06
1.11875e+06
1.10811e+06
1.16504e+06
1.40973e+06
1.45202e+06
1.56651e+06
1.49266e+06
1.2135e+06
1.12618e+06
1.1078e+06
1.17205e+06
1.27854e+06
1.43896e+06
1.56868e+06
1.68055e+06
1.75698e+06
1.79829e+06
1.81127e+06
1.79535e+06
1.75115e+06
1.66931e+06
1.5499e+06
1.41623e+06
1.25805e+06
1.15322e+06
1.08763e+06
1.10682e+06
1.20393e+06
1.48308e+06
1.53996e+06
1.67424e+06
1.60566e+06
1.25554e+06
1.11559e+06
1.07874e+06
1.09546e+06
1.15887e+06
1.27812e+06
1.38318e+06
1.47406e+06
1.53709e+06
1.57108e+06
1.58413e+06
1.5681e+06
1.52909e+06
1.46231e+06
1.36442e+06
1.26083e+06
1.14427e+06
1.08414e+06
1.06397e+06
1.09717e+06
1.22839e+06
1.53581e+06
1.58805e+06
1.73034e+06
1.71162e+06
1.30021e+06
1.10843e+06
1.04709e+06
1.04281e+06
1.06541e+06
1.14902e+06
1.22832e+06
1.30246e+06
1.35386e+06
1.38334e+06
1.39289e+06
1.3804e+06
1.34666e+06
1.2929e+06
1.21486e+06
1.13212e+06
1.04891e+06
1.02668e+06
1.03211e+06
1.08929e+06
1.27196e+06
1.63814e+06
1.66621e+06
1.73125e+06
1.72501e+06
1.34091e+06
1.1069e+06
1.01439e+06
991539
990464
1.03782e+06
1.09721e+06
1.15528e+06
1.19646e+06
1.22059e+06
1.22981e+06
1.2187e+06
1.19162e+06
1.1492e+06
1.08862e+06
1.02955e+06
979996
981269
1.00162e+06
1.08354e+06
1.30352e+06
1.66954e+06
1.70661e+06
1.73656e+06
1.72452e+06
1.41611e+06
1.10786e+06
979270
936867
928292
953734
993843
1.0376e+06
1.06862e+06
1.08775e+06
1.09324e+06
1.0858e+06
1.06352e+06
1.03036e+06
985237
944255
919080
925857
964928
1.08359e+06
1.35802e+06
1.68459e+06
1.72502e+06
1.74843e+06
1.71227e+06
1.47311e+06
1.10996e+06
952890
891406
877726
878687
903908
935442
958169
971838
976884
969693
953048
929498
897522
872470
869031
881643
936550
1.08577e+06
1.42383e+06
1.68467e+06
1.72427e+06
1.74873e+06
1.69344e+06
1.54358e+06
1.11931e+06
928240
848916
822576
817656
827588
849395
865706
876676
879498
875475
862571
847171
825158
812015
816596
838625
912313
1.0927e+06
1.51905e+06
1.67649e+06
1.72331e+06
1.74792e+06
1.66634e+06
1.55044e+06
1.14193e+06
918402
818231
777697
764357
763670
774432
785510
792858
795521
791752
782288
771338
761041
761125
771380
806239
898868
1.10829e+06
1.54222e+06
1.6612e+06
1.72147e+06
1.74363e+06
1.64025e+06
1.54469e+06
1.16367e+06
919188
787673
733395
715022
709460
713103
718909
724115
725464
723473
715607
711933
707045
710943
728277
778890
899521
1.14066e+06
1.54179e+06
1.63021e+06
1.7185e+06
1.73436e+06
1.61753e+06
1.53729e+06
1.21067e+06
926228
768700
700035
670226
660075
657264
659620
662692
663542
661916
657477
655833
659234
669285
695968
758391
902810
1.18032e+06
1.52538e+06
1.61136e+06
1.71469e+06
1.71481e+06
1.58682e+06
1.52314e+06
1.30416e+06
945208
754950
668805
631723
616869
612264
610876
612759
612170
611790
609132
611152
615348
627611
662561
741692
913941
1.25966e+06
1.49556e+06
1.5848e+06
1.70625e+06
1.67544e+06
1.56538e+06
1.48508e+06
1.34173e+06
966481
755533
647717
598858
578236
569001
566974
567247
566623
566368
564930
566960
577422
596764
640857
742141
941032
1.32611e+06
1.45505e+06
1.56557e+06
1.68564e+06
1.61486e+06
1.53931e+06
1.41931e+06
1.34013e+06
1.0129e+06
761936
629386
570261
544894
534570
530266
530320
528066
529497
529152
533874
543493
566180
621765
745310
974844
1.32457e+06
1.40089e+06
1.53898e+06
1.63748e+06
1.55964e+06
1.50594e+06
1.36271e+06
1.335e+06
1.10578e+06
778539
629453
551468
517736
501528
496477
495096
493725
494708
495210
499417
515445
547302
621775
755687
1.04245e+06
1.31986e+06
1.34677e+06
1.49477e+06
1.55637e+06
1.52131e+06
1.47115e+06
1.31235e+06
1.31543e+06
1.17814e+06
799132
631671
538701
494723
476544
468727
466849
464047
467098
467830
475484
491805
531565
625511
781743
1.18315e+06
1.30869e+06
1.30214e+06
1.43806e+06
1.49672e+06
1.47806e+06
1.43998e+06
1.27986e+06
1.27568e+06
1.17685e+06
843457
641184
538969
479966
452422
442817
439466
437520
439585
441974
450462
476877
528601
631329
817002
1.18182e+06
1.28081e+06
1.26375e+06
1.40239e+06
1.46819e+06
1.43153e+06
1.39662e+06
1.25254e+06
1.21523e+06
1.16874e+06
932866
662063
541618
471199
436652
422321
418217
414406
418135
421584
434631
465704
529786
646482
887335
1.17369e+06
1.2247e+06
1.24045e+06
1.38803e+06
1.4292e+06
1.39884e+06
1.35683e+06
1.23132e+06
1.16093e+06
1.14256e+06
1.0229e+06
694101
546345
471425
424402
404249
396943
393810
396790
402400
419112
465884
536861
681547
1.03314e+06
1.15455e+06
1.16969e+06
1.23239e+06
1.36467e+06
1.38643e+06
1.35929e+06
1.32016e+06
1.21288e+06
1.11765e+06
1.08999e+06
1.01996e+06
762266
561833
474211
421833
393191
382185
376673
381556
390744
414618
467334
550013
742455
1.03102e+06
1.11098e+06
1.12535e+06
1.22531e+06
1.33209e+06
1.35359e+06
1.31313e+06
1.27487e+06
1.1935e+06
1.08272e+06
1.03657e+06
1.01002e+06
900801
594602
481668
422600
388066
370411
363753
369067
384897
414902
472457
576995
865731
1.02026e+06
1.05618e+06
1.0905e+06
1.20993e+06
1.28714e+06
1.31866e+06
1.26659e+06
1.23564e+06
1.1696e+06
1.05716e+06
992586
984131
899412
653576
494676
424490
388276
367504
353993
365384
385116
417609
486824
635409
895070
996113
1.0113e+06
1.06548e+06
1.17959e+06
1.23454e+06
1.26701e+06
1.17308e+06
1.17928e+06
1.13726e+06
1.03767e+06
958456
937134
892898
776476
522022
432445
390041
367782
354187
365570
386154
424492
513716
750105
890969
946476
972146
1.04411e+06
1.13751e+06
1.16798e+06
1.17095e+06
1.03783e+06
1.1e+06
1.07941e+06
1.01393e+06
930674
890021
873636
795004
578250
452143
395885
369381
355580
366800
390563
441466
568667
798470
875433
892684
934405
1.01344e+06
1.07564e+06
1.08896e+06
1.03815e+06
85043.4
105055
106235
115482
116274
120880
122710
127559
127475
123367
119621
117489
114350
112915
112455
112321
112267
113740
114456
114777
115066
115130
114943
113746
112668
111823
110398
109378
108538
108157
85071.7
107234
108187
116695
116333
120938
123207
128075
127953
123376
118884
116299
114272
112949
112420
112136
112795
113598
114266
114842
115067
115163
114803
114012
113373
112316
111139
110242
109490
109158
91901.4
111067
111701
117741
117894
121790
124709
128485
128050
123228
118221
115381
113783
113009
112467
112102
113076
113800
114358
114844
115093
115128
114733
114550
113872
113157
112337
111555
110847
110400
99887.6
114718
115106
118882
119526
122878
126098
128791
128130
122495
117531
114714
113369
112811
112532
112422
113153
113824
114523
114864
115049
115110
115111
115207
114662
114240
114019
113387
112708
112155
107016
118193
118176
120552
121373
124476
127550
129318
128202
122057
116773
114296
113124
112644
112467
112431
112999
113662
114436
114920
115149
115314
115553
116219
115863
115740
115733
115271
114685
114435
112647
121678
121103
122869
123650
126445
129072
129846
128265
121555
116509
114129
113043
112585
112442
112415
113025
113785
114505
114963
115256
115596
116169
116773
117282
117363
117401
117063
116610
116288
117773
124844
124059
125451
126220
128832
130016
130443
128289
120977
116315
113992
112935
112526
112416
112460
112997
113712
114569
115148
115611
116146
116854
117535
118235
118943
119174
119007
118756
118739
122862
127826
127064
128073
128682
129915
130662
130905
128184
120402
116111
113890
112904
112517
112415
112561
112962
113709
114597
115298
116108
116818
117560
118231
119104
119986
120688
120886
120903
120870
127446
130846
130084
130442
130133
130482
130918
131030
127290
119956
115931
113858
112895
112516
112421
112614
112961
113699
114649
115524
116613
117600
118250
118909
119834
120652
121677
122788
123146
123225
131689
133940
132474
131804
130756
130727
130980
131078
125984
119525
115744
113866
112966
112601
112499
112539
113029
113722
114671
115729
117080
118096
118838
119628
120875
121455
122729
124295
125017
125427
135101
135813
133929
132535
131012
130795
130957
131011
124469
118884
115698
114085
113221
112872
112720
112619
113103
113786
114747
116110
117632
118645
119835
120682
121668
122600
123944
125446
126543
127350
138306
136664
134990
132897
131110
130668
130676
130907
122657
118169
115609
114310
113641
113289
113025
112925
113162
113822
114888
116489
118257
119820
120968
121640
122338
123728
124889
126058
127459
128275
140178
136961
135533
133071
131166
130445
129661
128423
120936
117553
115467
114431
113950
113694
113364
113268
113211
113911
115207
117143
119157
120534
121753
122429
123254
124851
125968
127023
128272
129265
141011
137058
135712
133130
131145
130189
129162
124863
119601
116896
115219
114468
114172
114058
113687
113466
113402
114181
115854
117930
119553
121011
122326
123225
124145
125794
127201
128104
129426
130261
141190
136806
135757
132677
130769
129554
128408
121815
118272
115968
114849
114408
114255
114231
113958
113786
113766
114763
116731
117984
119603
121314
122619
123891
125107
126815
128825
129326
130769
131887
141207
136115
134978
131467
129871
128366
126546
119704
116553
115038
114387
114211
114272
114303
114338
114307
114441
115999
116976
117964
119613
121425
122934
124453
125874
127557
129340
130688
132127
132235
140156
134820
133337
129865
128268
126553
123811
117953
115169
113933
113467
113362
114014
114311
114664
114900
115568
116603
117298
117877
119733
121462
123168
124991
126710
128196
129938
131983
132362
132525
139069
133451
131682
127815
126045
124269
120957
115935
113619
112680
112368
112319
113402
114214
114824
115559
116269
116825
117487
118590
119935
121467
123376
125687
128689
130207
131354
132340
132629
132613
136844
131079
129690
125578
123654
121937
117741
113754
111945
111292
111094
111086
112529
113759
114888
115875
116653
117377
117937
118612
119935
121527
123741
127031
129298
131361
132262
132746
132809
133253
134863
128990
127806
123277
121047
119597
114609
111672
110312
109848
109718
109857
111654
113245
114901
116007
116830
117660
118151
118651
119885
121766
124568
127179
129951
131922
132840
133249
133456
133478
130752
125743
124333
120567
118191
116789
112132
109782
108711
108361
108266
108762
110757
112790
114896
116044
116884
117738
118214
118461
119893
122059
124391
127255
130053
132077
133056
133488
133553
133600
127490
122824
121449
117571
115351
113835
109880
107930
107119
106898
106849
107785
109856
112309
114270
115299
115966
116884
117454
118313
119848
122139
124414
127462
129965
132085
133115
133565
133576
133706
121481
118807
117839
114518
112655
110728
107681
106093
105542
105440
105436
106477
108312
110831
112256
112934
113784
115296
116638
118182
119818
122117
124689
127384
129891
132068
133122
133583
133593
133718
117929
115861
114634
111478
110018
107634
105634
104371
103983
103919
103953
104080
104801
107067
109503
110735
112510
114306
116229
118089
119817
122340
124903
127382
129808
131885
132995
133499
133440
133409
106529
111575
111781
108831
107342
105227
103740
102737
102361
102241
102042
101737
101645
104125
107737
109717
111870
113807
116025
118031
119832
122414
124999
127358
129651
131205
131993
132258
132610
132831
106492
106776
107473
108289
109315
110325
111312
112077
113185
113042
112545
112156
111760
111125
110397
110560
111103
112878
116007
118962
123509
127178
126703
122211
120587
116493
115576
106352
105213
86037.7
107478
107723
108410
109142
110016
110920
111865
112963
113249
113170
113015
112293
111726
110778
110350
110595
111385
113059
115240
118535
123621
127638
127030
122332
120533
116473
116634
108315
107629
85853.1
108827
109167
109775
110435
111135
111731
112432
113216
113277
113258
113159
112517
111676
110810
110678
110740
111396
112601
114556
117922
123529
127736
127325
123946
121333
117703
117549
111859
111339
92440.3
110666
111120
111696
112236
112648
112798
113152
113383
113478
113466
113193
112394
111444
111096
111054
111066
111413
112288
113862
116759
122935
127820
127512
125222
122334
119318
118697
115192
114647
100503
113154
113290
113713
114047
114256
114137
114116
113797
113805
113709
113230
112410
111588
111098
110881
111142
111505
112153
113551
116366
121870
127882
128331
126973
124163
121168
120378
118147
118077
107334
115180
115382
115678
115802
115787
115527
115210
114912
114157
113930
113418
112637
111631
111086
110898
111064
111482
112072
113273
115902
121238
127929
128983
128299
126394
123464
122668
120949
121427
112816
117615
117638
117770
117603
117292
116787
116251
115471
114629
114078
113562
112750
111691
111117
111114
111151
111422
111977
113116
115494
120675
127917
129644
129376
128519
125985
125134
123894
124465
117862
119540
119674
119588
119131
118430
117603
116991
115921
115097
114321
113750
112891
111693
111117
111069
111216
111458
111952
113019
115310
120018
127624
129923
129788
129505
128678
127609
126837
127361
122701
121480
121442
121161
120447
119372
118502
117820
116497
115567
114532
113859
112946
111765
111171
111105
111235
111495
111991
113047
115250
119413
126586
130014
130004
130024
129910
129996
129523
130095
127105
123092
122696
122162
121260
120134
119375
118423
116991
115865
114737
113922
112969
111906
111326
111247
111315
111591
112178
113263
115235
118949
125103
130028
130082
130210
130472
131435
131915
132990
131199
124614
123959
123093
122000
120999
120361
118786
117325
116207
115058
114150
113010
111971
111443
111476
111546
111768
112379
113284
115077
118294
123460
130045
130107
130291
130722
132185
133441
134667
134467
126321
125514
124322
123060
121994
121565
119489
117991
116778
116234
115256
113196
112065
111538
111607
111748
111993
112512
113288
114714
117626
121733
129892
130009
130349
130809
132512
134216
135467
137517
127960
127016
125694
124409
123141
121948
120488
119426
118278
116649
115461
113801
112323
111631
111689
111855
112128
112634
113247
114495
117020
120369
127544
129229
130056
130822
132660
134585
135771
139066
130097
129027
126853
125602
124156
122442
121260
120305
119120
116969
115612
114620
112767
111884
111906
112062
112398
112754
113217
114161
116176
119391
124133
128410
129581
130660
132701
134710
135860
139787
130448
129999
128411
126689
125016
123035
122109
120838
119271
117206
115668
114692
113824
112365
112357
112426
112643
112785
113090
113726
115156
118117
121397
127289
128964
130463
132217
134718
135711
139953
130712
130352
129849
127476
125658
123661
122693
121097
119391
117913
115985
114934
114257
113180
112840
112834
112775
112802
112906
113237
114122
116062
119353
125573
127915
129698
130984
133724
134948
139932
130974
130752
130192
128608
126432
124563
123554
121550
119562
117917
116668
115549
114592
114388
113659
113342
112808
112697
112466
112595
113119
114441
117272
123080
126126
128037
129269
131951
133505
138887
131960
131209
130738
130399
128826
126145
125064
122006
119960
118076
116579
116002
115448
115057
114574
113852
112816
112211
111528
111595
111950
112947
115305
120402
123694
125547
126992
130189
132045
137877
132215
132155
131785
131309
130346
128281
125330
122254
120225
118348
116888
116568
116105
115633
115056
114086
112762
111562
110433
110474
110740
111441
113236
117274
121049
122812
124516
128190
129742
135867
132487
132532
132379
131967
131001
128701
125590
122737
120351
118482
117241
116743
116352
115874
115265
114170
112505
110842
109278
109294
109424
109869
111180
114077
118450
120055
122097
126299
127696
133957
132911
132828
132631
132221
131223
129059
126090
123679
120489
118716
117322
116792
116439
115945
115323
114182
112132
110118
108367
107951
108033
108335
109298
111443
115665
117140
119598
122981
124577
129991
132926
132901
132702
132266
131263
129128
126417
123630
120859
118917
117333
116354
115993
115695
115075
113909
111885
109530
107578
106704
106750
106934
107620
109281
112676
114381
116827
120179
121756
126762
132793
132499
132698
132265
131219
129113
126375
123724
121265
118892
117299
115647
114245
113366
112903
112138
110652
108261
106407
105408
105408
105490
105952
107180
109742
111730
113997
116704
117827
120708
132757
132329
132159
131729
130606
128775
126371
124031
121475
118989
117265
115298
113352
111904
110547
109490
107201
105396
104318
103945
103886
103927
104215
105110
106982
109283
110765
113707
115034
117051
132727
132270
131590
130674
129433
128241
126331
124146
121627
119059
117247
115127
112907
111172
109248
107141
103770
101660
101778
102015
102203
102281
102524
103266
104777
106651
108218
110860
110737
105593
285651
285016
284331
284144
284579
286944
291236
296997
304370
312947
322245
331852
341305
350241
358419
365743
372194
377828
382742
386956
390442
393227
395358
396778
397392
397526
397286
396612
395510
394198
392661
390853
388814
386587
384191
381627
378889
375981
372893
369665
366307
362818
359196
355457
351617
347620
343422
339060
334497
329760
324953
320014
314919
309726
304405
298997
293524
287967
282356
276688
270965
265210
259443
253658
247864
242094
236394
230796
225305
219928
214645
209457
204367
199381
194489
189695
184995
180402
175902
171490
167186
163027
159023
155174
151463
147922
144572
141437
138539
135859
133388
131076
128898
126831
124915
123108
121363
119682
118161
116943
116050
115345
114711
114511
114501
114510
114550
114682
115023
115778
117181
118809
119288
119975
121195
122706
125415
127241
128314
129162
130012
131419
132717
132788
132767
289298
289041
288972
289071
290308
293257
297660
303302
310072
317633
325464
333431
341496
349525
357193
364277
370652
376270
381131
385267
388725
391612
393655
394538
394903
394966
394707
393974
392896
391539
389923
388071
386004
383749
381330
378766
376067
373239
370118
366944
363688
360305
356795
353163
349413
345529
341502
337330
333042
328636
324018
319240
314337
309289
304305
299191
293935
288502
282923
277209
271431
265635
259841
254083
248399
242819
237288
231783
226291
220822
215400
210010
204677
199445
194310
189289
184409
179690
175140
170753
166513
162422
158428
154560
150822
147224
143780
140529
137516
134785
132342
130125
128086
126175
124379
122724
121166
119683
118322
117166
116189
115472
114924
114687
114568
114533
114548
114640
114936
115632
117062
118155
118669
119360
120775
122600
125432
126825
127989
128969
129957
131246
132104
132242
132251
293043
293241
293424
294289
296454
299799
304188
309531
315714
322549
330000
337571
344938
351975
358736
365095
370903
376077
380583
384390
387486
390094
391602
392295
392514
392527
392120
391278
390110
388676
387000
385106
383015
380750
378333
375781
373098
370294
367353
364296
361125
357840
354442
350937
347329
343423
339574
335555
331384
327067
322600
317973
313201
308287
303126
297871
292562
287278
282141
276966
271687
266283
260752
255103
249363
243561
237715
231927
226249
220665
215153
209726
204392
199146
193978
188932
184020
179223
174555
170013
165628
161413
157401
153589
149959
146534
143295
140273
137464
134893
132549
130422
128451
126588
124829
123176
121647
120237
118958
117840
116783
115979
115286
114857
114668
114440
114439
114479
114677
115201
116304
116802
117193
117987
119632
122266
124509
125768
127094
128307
129502
130456
130892
131063
131240
297923
298026
298931
300936
303835
307685
312339
317723
323721
330158
336856
343687
350238
356416
362172
367528
372474
376954
380873
384164
386917
389015
389979
390342
390427
390340
389725
388743
387450
385918
384168
382228
380119
377860
375465
372945
370304
367550
364677
361699
358612
355413
352101
348676
345130
341448
337638
333693
329615
325407
321088
316409
311869
307180
302357
297417
292351
287016
281364
275628
269859
264073
258614
253229
247859
242492
237100
231606
225997
220348
214716
209142
203649
198255
192889
187660
182620
177776
173135
168676
164393
160305
156377
152620
149048
145693
142538
139621
136963
134512
132312
130293
128404
126622
124932
123338
121849
120423
119104
117887
116773
115895
115183
114637
114362
113878
113744
113760
113870
114190
114878
115576
116012
116893
118698
121182
122895
124175
125627
127095
128352
129125
129583
129837
130126
302789
303333
305153
307777
311303
315507
320352
325735
331532
337584
343698
349774
355795
361398
366528
371166
375304
378933
382051
384704
386951
388064
388534
388666
388672
388191
387281
386068
384618
382968
381137
379157
377041
374800
372441
369969
367385
364687
361886
358974
355958
352832
349596
346246
342775
339175
335443
331569
327546
323375
319054
314574
309950
305190
300329
295419
290103
285027
279911
274728
269508
264226
258481
252552
246523
240424
234320
228647
223127
217655
212229
206839
201476
196169
191080
186128
181258
176457
171714
167166
162872
158818
155005
151409
148006
144816
141865
139140
136637
134347
132251
130247
128369
126629
124958
123349
121833
120390
119017
117720
116540
115510
114628
113756
113181
112649
112288
112283
112332
112528
112975
113712
114374
115639
118188
120894
122284
123355
124614
125868
126736
127257
127791
128342
128734
307615
308788
311172
314450
318377
322896
327917
333347
339028
344816
350557
356110
361384
366445
371110
375152
378636
381601
384085
386054
386983
387365
387473
387478
386919
385980
384757
383307
381676
379895
377990
375980
373864
371644
369316
366877
364329
361674
358915
356058
353105
350052
346894
343624
340227
336688
332994
329134
325104
320910
316562
312069
307446
302698
297838
292886
287831
282677
277445
272184
266950
261217
255847
250453
245015
239585
234150
228262
222209
216139
210092
204271
198896
193725
188686
183747
178929
174299
169931
165739
161674
157725
153898
150323
147030
143992
141197
138630
136269
134101
132069
130103
128238
126475
124714
123008
121437
119957
118531
117133
115803
114526
113363
112415
111626
111141
110741
110590
110603
110707
111017
111703
112559
113972
116815
120685
121845
122807
124051
125274
125900
126163
126609
127349
127727
312201
313787
316797
320515
324795
329577
334755
340216
345821
351412
356847
362008
366809
371179
375095
378665
381829
384464
385948
386657
386943
387018
386862
386094
384976
383616
382071
380391
378610
376744
374803
372791
370682
368477
366156
363724
361186
358558
355846
353056
350193
347238
344179
340998
337664
334157
330459
326566
322488
318243
313849
309315
304650
299863
294966
289976
284911
279807
274682
269543
264374
259114
253720
248217
242664
237187
230805
225352
219794
214294
208891
203432
197682
191967
186416
181383
176747
172308
167994
163819
159845
156146
152751
149524
146442
143536
140833
138310
135987
133798
131723
129722
127774
125870
124001
122241
120617
119072
117465
115965
114717
113556
112479
111561
110792
110256
109892
109720
109721
109760
109945
110424
111460
113212
116533
120314
121073
121778
123152
124275
124633
124985
125518
126230
126322
316304
318290
321798
325902
330480
335474
340787
346282
351812
357227
362395
367216
371620
375555
378957
381793
384148
385775
386554
386877
386965
386586
385568
384289
382751
381040
379221
377349
375454
373555
371634
369646
367553
365339
363000
360544
358013
355440
352825
350154
347428
344609
341666
338552
335242
331709
327957
323999
319868
315589
311174
306622
301934
297121
292192
287171
282089
276987
271904
266823
261684
256440
251089
245660
240175
234647
229064
223431
217806
212302
206150
200784
195526
190437
185499
180398
175257
170334
165925
161961
158238
154670
151275
148109
145215
142559
140081
137749
135500
133328
131229
129174
127141
125122