/*--------------------------------*- C++ -*----------------------------------*\
| =========                 |                                                 |
| \\      /  F ield         | OpenFOAM: The Open Source CFD Toolbox           |
|  \\    /   O peration     | Version:  2112                                  |
|   \\  /    A nd           | Website:  www.openfoam.com                      |
|    \\/     M anipulation  |                                                 |
\*---------------------------------------------------------------------------*/
FoamFile
{
    version     2.0;
    format      ascii;
    arch        "LSB;label=32;scalar=64";
    class       surfaceScalarField;
    location    "0.00867";
    object      phi;
}
// * * * * * * * * * * * * * * * * * * * * * * * * * * * * * * * * * * * * * //

dimensions      [1 0 -1 0 0 0 0];

oriented        oriented;

internalField   nonuniform List<scalar> 
27436
(
-0.533468
8.19281
-0.0933208
7.47166
-0.0850853
7.78727
-0.0707575
7.78629
-0.0650653
7.7887
-0.048353
7.78105
-0.040504
7.78959
-0.0350139
7.79048
-0.023849
7.78711
-0.0147924
7.78858
-0.00834447
7.79015
0.000677533
7.78841
0.014253
7.78331
0.0310834
7.78088
0.0462333
7.7823
0.0549141
7.78824
0.0580319
7.79262
0.0658374
7.78971
0.0753343
7.78829
0.089543
7.78253
0.0961738
7.78793
0.111692
7.78552
0.123682
7.78272
0.572396
7.46082
8.2127
-0.247217
8.44003
-0.0961573
7.32066
-0.0812057
7.77247
-0.0542275
7.75962
-0.058675
7.79336
-0.0604376
7.78307
-0.0379788
7.76682
-0.0281336
7.78057
-0.0202339
7.77993
-0.0112036
7.78004
0.000773152
7.77941
0.0153079
7.77386
0.0151086
7.78347
0.0216175
7.77434
0.0210681
7.78286
0.0377065
7.77161
0.0465912
7.78373
0.0589723
7.77733
0.0823467
7.76492
0.0776862
7.78718
0.0721629
7.79341
0.10288
7.75485
0.114021
7.77154
0.268146
7.30592
8.48518
-0.227247
8.66728
-0.141145
7.23453
-0.120469
7.75176
-0.106568
7.74588
-0.105048
7.79202
-0.106337
7.78442
-0.0952335
7.75619
-0.0748486
7.7595
-0.0593246
7.76269
-0.0495961
7.76596
-0.0386001
7.76465
-0.0147816
7.74983
-0.0126474
7.78137
-0.0113817
7.77306
-0.00824606
7.77975
0.0127112
7.75065
0.0240887
7.77235
0.0473195
7.75414
0.0609341
7.75129
0.0594108
7.7887
0.0638734
7.78893
0.0786768
7.74005
0.100433
7.74941
0.192106
7.21574
8.6823
-0.16954
8.83678
-0.139463
7.20441
-0.134212
7.74646
-0.113167
7.725
-0.114563
7.7935
-0.110551
7.78077
-0.0915272
7.73744
-0.0726268
7.73969
-0.0570713
7.74508
-0.0432567
7.75041
-0.0285707
7.74849
-0.00714961
7.72797
0.00294406
7.77138
0.00488394
7.77112
0.0149753
7.76968
0.0353184
7.73032
0.0494742
7.75821
0.0697512
7.73389
0.0885595
7.73246
0.0942407
7.78303
0.0944858
7.78867
0.118968
7.71548
0.111452
7.75668
0.161668
7.16671
8.84249
-0.0736076
8.91035
-0.0366318
7.1674
-0.0927233
7.8025
-0.0634383
7.69582
-0.0714225
7.80188
-0.0702961
7.78006
-0.0537048
7.72107
-0.0366036
7.72185
-0.0238204
7.73048
-0.0139782
7.73889
-0.001125
7.73385
0.0166697
7.70972
0.0268192
7.76135
0.0276518
7.77033
0.0370512
7.76031
0.0543972
7.713
0.0645057
7.74812
0.0821396
7.7163
0.0969987
7.7176
0.101068
7.77897
0.0968975
7.79283
0.124873
7.68745
0.0902361
7.79108
0.0977837
7.15907
8.93522
0.11853
8.79178
0.0436864
7.24223
-0.050466
7.89657
-0.0141239
7.6597
-0.0339762
7.822
-0.0371903
7.78462
-0.02616
7.71006
-0.0131703
7.70764
-0.00466647
7.72031
-0.00125082
7.73267
0.00585196
7.72441
0.0194379
7.69568
0.0256368
7.75538
0.0249912
7.7711
0.0296679
7.75567
0.0421961
7.70048
0.0464014
7.74394
0.0584542
7.70426
0.0684534
7.70759
0.0690609
7.77836
0.052429
7.80946
0.0884927
7.65133
-0.0134899
7.89287
-0.0199446
7.16555
8.91157
0.30461
8.48713
0.136016
7.41079
-0.00714265
8.03973
0.0205951
7.63209
-0.0257662
7.86877
-0.0512439
7.81068
-0.0611329
7.72019
-0.0677205
7.71338
-0.0809504
7.73156
-0.0951702
7.7446
-0.111871
7.73955
-0.120238
7.70372
-0.131145
7.7665
-0.146252
7.78634
-0.158049
7.76752
-0.166373
7.70883
-0.184982
7.76257
-0.192962
7.71228
-0.207937
7.72258
-0.228724
7.79917
-0.262777
7.84353
-0.28464
7.67314
-0.354515
7.96273
-0.657574
7.46884
8.25191
0.873289
7.6138
0.5219
7.76211
0.409942
8.1516
0.330435
7.71165
0.264075
7.93521
0.223179
7.85301
0.193959
7.74993
0.171807
7.73517
0.144132
7.75669
0.114226
7.77271
0.0827862
7.77034
0.0609581
7.72559
0.0379869
7.78967
0.00675213
7.81771
-0.0192232
7.79355
-0.0444914
7.73412
-0.0742953
7.79239
-0.100691
7.7387
-0.130639
7.75254
-0.167139
7.83567
-0.22819
7.9046
-0.278832
7.72371
-0.406215
8.09019
-0.69303
7.7556
7.55966
0.592932
7.02081
0.410159
7.9449
0.237382
8.32434
0.186638
7.76197
0.12532
7.99606
0.0929444
7.8867
0.0855376
7.75798
0.0849057
7.73641
0.081155
7.75862
0.0759191
7.77668
0.0712276
7.77488
0.0706716
7.72627
0.0767526
7.78376
0.0768173
7.81779
0.076959
7.79347
0.0722439
7.73886
0.0674683
7.79718
0.0629873
7.74322
0.056216
7.75937
0.0293246
7.86264
-0.0266933
7.9607
-0.0465772
7.74365
-0.219403
8.26329
-0.371892
7.90841
7.19123
-3.05087
10.0718
-3.39137
8.28533
-2.76485
7.69729
-2.62017
7.61675
-2.30541
7.68062
-1.94446
7.52665
-1.65014
7.46327
-1.37043
7.45611
-1.08257
7.47092
-0.781735
7.47555
-0.494834
7.48917
-0.20915
7.441
0.0972645
7.47729
0.403684
7.51149
0.694899
7.50231
0.966073
7.46772
1.26516
7.49809
1.542
7.4664
1.83579
7.46563
2.1964
7.50209
2.50186
7.65535
2.6599
7.5856
3.23443
7.68915
2.95124
8.19201
10.1442
-4.25765
14.3297
-4.36464
8.39327
-4.19525
7.52704
-3.9016
7.32206
-3.32901
7.10715
-2.79658
6.99369
-2.34848
7.01458
-1.91909
7.02651
-1.47129
7.02398
-1.01939
7.02481
-0.562158
7.03496
-0.12167
7.00095
0.339748
7.01556
0.811606
7.03974
1.25945
7.05455
1.67721
7.04999
2.13222
7.04311
2.5707
7.02795
3.02562
7.01075
3.57738
6.95038
4.13416
7.09867
4.44409
7.27581
4.61471
7.51876
4.56495
8.24238
14.708
-2.7568
17.088
-4.86292
10.4987
-4.98503
7.64715
-4.14704
6.48238
-3.62588
6.58449
-3.17503
6.54124
-2.6957
6.53404
-2.21258
6.54382
-1.71877
6.53216
-1.22521
6.53425
-0.722749
6.53664
-0.244514
6.52275
0.256914
6.51358
0.762082
6.53471
1.25975
6.557
1.71856
6.59125
2.20564
6.55608
2.69683
6.53681
3.19237
6.51521
3.66809
6.47468
4.24926
6.51753
5.09961
6.42558
4.72216
7.89637
2.77976
10.1848
17.4872
2.36569
14.7234
0.160937
12.7016
-5.01479
12.8201
-3.89634
5.36097
-3.80334
6.49037
-3.30194
6.03741
-2.87032
6.10073
-2.37194
6.04541
-1.85356
6.01604
-1.33177
6.01604
-0.809988
6.01766
-0.307441
6.01928
0.209523
5.99597
0.740006
6.00447
1.26495
6.03227
1.78903
6.06732
2.28014
6.06505
2.75933
6.05769
3.20018
6.07443
3.76058
5.91429
3.97393
6.30418
5.11027
5.28896
-0.178928
13.1852
-2.39804
12.4035
15.089
2.45432
12.2693
3.52081
11.6341
3.44405
12.8919
-0.811448
9.62114
-3.62707
9.30874
-3.1969
5.60699
-2.97216
5.87438
-2.47721
5.54888
-1.95127
5.48981
-1.46733
5.53232
-0.977957
5.52705
-0.473512
5.5131
0.0250923
5.49688
0.529941
5.49991
1.03347
5.52916
1.53052
5.57059
2.03068
5.5651
2.48461
5.60389
2.61256
5.94646
2.98508
5.54173
-0.0888944
9.37814
-4.15337
9.35477
-3.87643
12.9072
-2.95612
11.4826
12.1325
1.87866
10.3899
3.87795
9.63493
5.7755
10.9905
4.95574
10.4435
4.10107
10.1726
-1.18908
10.9053
-2.38501
7.07141
-2.04908
5.2083
-1.63005
5.06691
-1.13683
5.03599
-0.602988
4.98995
-0.063705
4.9724
0.468613
4.96477
1.00006
4.96903
1.53969
4.99015
2.05162
5.0592
2.44512
5.17171
2.7967
5.25248
1.50781
7.2357
-3.66387
10.7138
-4.23618
9.95068
-4.8915
10.01
-3.05245
11.0677
-1.33324
9.76232
10.7983
1.09262
9.29682
2.16931
8.55739
3.98468
9.17276
4.94054
9.48895
5.05555
10.0622
5.79726
10.1672
2.77339
10.0949
1.12807
6.85357
-0.0563927
6.2516
-0.391789
5.36823
-0.254682
4.85129
0.0388389
4.67902
0.391943
4.61271
0.714752
4.64725
0.928693
4.77735
0.813693
5.17495
-0.510935
6.49704
-2.34141
7.08225
-5.02999
9.925
-4.27786
9.96255
-3.96999
9.64317
-3.50764
9.54739
-1.86042
9.41979
-0.760501
8.66147
10.0369
2.00611
7.29134
3.17574
7.38898
4.37341
7.97801
5.95208
7.9132
7.05456
8.96407
6.64613
10.5796
4.71404
12.0231
2.16326
9.40844
0.868943
7.54846
0.186009
6.0536
-0.000841908
5.03956
-0.0377938
4.71567
-0.0159836
4.58887
-0.0160823
4.64534
-0.160404
4.91937
-0.814681
5.82762
-2.37863
8.0608
-4.94286
9.64587
-6.74535
11.7286
-7.24589
10.4623
-6.42411
8.82153
-4.99906
8.12191
-3.70576
8.1258
-2.56046
7.51572
7.47573
2.53306
4.75735
4.15178
5.76933
4.68475
7.44736
4.3347
8.26766
4.55304
8.74747
4.27229
10.8601
4.15427
12.1398
2.55823
11.0021
1.36508
8.7438
0.602042
6.82062
0.216993
5.42929
-0.074394
5.01155
-0.366726
4.88455
-0.66475
4.94559
-1.01513
5.27165
-1.9043
6.71724
-3.25464
9.40878
-4.94323
11.3313
-5.86957
12.654
-6.24393
10.8372
-5.9648
8.54564
-5.94038
8.09836
-4.96525
7.15039
-2.941
5.49111
4.53442
3.16218
1.5937
6.23549
2.69363
8.47572
5.20376
8.248
8.49983
6.47043
10.5253
5.92799
11.4036
5.58888
12.4803
4.89507
11.6945
4.15543
9.4827
3.23864
7.73896
1.99322
6.67704
0.820136
6.18652
-0.33247
6.03884
-1.53642
6.15074
-2.89948
6.63561
-3.97727
7.7952
-4.37753
9.80735
-4.76134
11.7122
-4.63312
12.5257
-5.27812
11.4829
-7.52794
10.7975
-7.85554
8.42872
-5.76902
5.06291
-2.95838
2.68011
1.57569
1.20125
0.39148
2.92845
0.964907
4.95581
3.17528
6.47894
6.97722
5.7569
11.248
5.43094
11.7294
5.39885
12.5133
4.85892
12.2352
3.80298
10.5379
2.64097
8.90081
1.4951
7.8229
0.37583
7.30587
-0.752705
7.16746
-1.90876
7.30683
-3.15436
7.88122
-4.44796
9.0885
-5.45325
10.8117
-5.87296
12.1302
-5.81287
12.4637
-6.09919
11.769
-6.681
11.3824
-4.98429
6.73396
-2.98432
3.0631
-1.21335
0.909133
0.362152
0.581269
-0.190915
0.866411
0.678468
1.00427
3.03615
1.32872
6.65467
2.26237
10.3127
2.91325
11.0768
3.40674
12.022
3.31939
12.323
2.653
11.2021
1.79301
9.75982
0.937137
8.67831
0.0973938
8.14518
-0.735969
8.00029
-1.61396
8.18444
-2.54937
8.81636
-3.48499
10.0237
-4.08928
11.4151
-4.03018
12.0691
-3.41369
11.8464
-2.72063
11.0757
-1.66707
10.3315
-1.15078
6.2176
-0.918223
2.83039
-0.597581
0.588175
-0.236103
-0.154351
-0.0369657
-0.302849
0.825701
-0.701255
3.43324
-0.654469
6.60809
0.393596
9.26165
1.30447
10.1658
1.89675
11.4316
2.0286
12.1913
1.73547
11.4934
1.25606
10.2387
0.704264
9.23
0.145643
8.70351
-0.415328
8.56073
-0.978142
8.74685
-1.53332
9.37126
-1.97815
10.4682
-2.15927
11.5952
-1.94715
11.8562
-1.27288
11.1708
-0.299195
10.1014
0.802465
9.23208
0.695511
6.32586
0.363504
3.16286
0.201115
0.750329
-0.0353348
-0.535441
0.49864
-1.37451
1.66438
-1.78462
3.84185
-1.7997
6.6207
-0.918007
8.37693
-0.0577956
9.30682
0.463067
10.9115
0.768638
11.8849
0.857181
11.4033
0.732169
10.3634
0.494514
9.46771
0.210603
8.98732
-0.0756652
8.84669
-0.343979
9.01487
-0.538358
9.56581
-0.596395
10.5264
-0.464318
11.4632
-0.184162
11.5749
0.450486
10.5369
1.31037
9.24065
2.17366
8.36815
2.03361
6.46638
1.51871
3.67811
0.548799
1.72081
0.513031
-0.398069
0.897184
-1.50717
2.77304
-2.43223
4.76544
-2.54854
6.73517
-2.06857
7.89671
-1.60145
8.83939
-1.02997
10.3395
-0.512828
11.3671
-0.164858
11.0548
-0.00953634
10.2086
0.0107588
9.44751
-0.0472208
9.04537
-0.139239
8.93863
-0.198796
9.07451
-0.179968
9.54748
-0.00692964
10.3541
0.357329
11.099
0.841825
11.0906
1.34689
10.0302
1.92408
8.66177
2.46368
7.83006
2.33869
6.59201
1.35646
4.66041
0.354108
2.72274
0.867169
-0.381744
1.27919
-1.39822
3.78941
-2.19116
5.55688
-2.42655
6.9697
-2.19477
7.66542
-1.887
8.53197
-1.44917
9.90066
-0.921206
10.8384
-0.473658
10.6077
-0.217812
9.95339
-0.103579
9.33359
-0.0620986
9.00406
-0.0286779
8.9055
0.025038
9.02135
0.164022
9.40943
0.439772
10.0793
0.871842
10.6675
1.3819
10.5797
1.77417
9.63827
2.11091
8.3245
2.38166
7.55595
2.12428
6.84916
1.30111
5.48359
0.344929
3.67741
1.21164
-0.350891
1.63006
-1.23037
4.66819
-2.05382
6.37902
-2.41562
7.33055
-2.38468
7.63452
-2.16196
8.30818
-1.77635
9.5134
-1.21576
10.2765
-0.723617
10.1159
-0.355991
9.58639
-0.138733
9.11671
0.0173593
8.84849
0.144041
8.77961
0.304323
8.86201
0.537413
9.17744
0.935065
9.68247
1.45166
10.1513
1.96363
10.0672
2.28674
9.31339
2.50218
8.10737
2.51373
7.54616
2.14185
7.22059
1.23893
6.38628
0.353651
4.56207
1.56543
-0.463713
2.0939
-1.38972
5.59467
-2.20753
7.19512
-2.53595
7.65764
-2.59386
7.69237
-2.46083
8.17357
-2.16298
9.21308
-1.65527
9.76779
-1.13664
9.5987
-0.741829
9.19202
-0.452249
8.82788
-0.231998
8.62925
-0.0241475
8.57304
0.195334
8.64354
0.494191
8.87948
0.880439
9.29678
1.35401
9.67731
1.83595
9.58496
2.14351
9.00606
2.29881
7.95221
2.24325
7.59893
1.95726
7.50696
1.225
7.1198
0.382159
5.40584
1.94746
-0.364917
2.45855
-1.22251
6.45291
-1.96967
7.93841
-2.16989
7.85563
-2.35737
7.8778
-2.2739
8.08808
-1.98941
8.92705
-1.49371
9.27167
-1.02338
9.12922
-0.622759
8.79189
-0.317558
8.52384
-0.056731
8.36993
0.177937
8.33979
0.442346
8.38026
0.75199
8.57052
1.18288
8.86621
1.66902
9.19196
2.10807
9.1445
2.34349
8.76981
2.41026
7.88498
2.19814
7.8107
1.94325
7.76058
1.18257
7.87974
0.364144
6.22603
2.31078
-0.298554
2.75712
-1.19107
7.34605
-1.91248
8.65889
-2.08773
8.02969
-2.23557
8.02416
-2.16721
8.01773
-1.91916
8.67728
-1.49055
8.84338
-1.03017
8.67087
-0.641479
8.40436
-0.306014
8.18992
-0.0191458
8.08457
0.265112
8.05689
0.556675
8.08975
0.911259
8.21647
1.30403
8.47372
1.74143
8.75407
2.16237
8.72473
2.37747
8.55382
2.44728
7.81576
2.28765
7.97165
2.09809
7.94983
1.42148
8.55548
0.461256
7.18501
2.76984
-0.537367
3.29481
-1.44674
8.25848
-2.0536
9.26755
-2.22561
8.20322
-2.40313
8.20005
-2.44104
8.05378
-2.24326
8.47828
-1.78968
8.39055
-1.34978
8.23285
-0.942918
7.99886
-0.608849
7.85754
-0.295116
7.7722
-0.0021488
7.7651
0.310675
7.77778
0.643955
7.88371
1.06038
8.0577
1.49269
8.32247
1.87743
8.33916
2.07809
8.35335
2.03945
7.85331
1.9306
8.07927
1.72736
8.15284
1.14041
9.14213
0.374553
7.95016
3.14335
-0.437142
3.73139
-1.26532
9.08849
-1.90437
9.90689
-2.0326
8.32928
-2.03856
8.20304
-2.01632
8.03067
-1.823
8.28525
-1.4699
8.03955
-1.07661
7.84216
-0.721899
7.64588
-0.380418
7.51749
-0.0738197
7.4667
0.240694
7.4515
0.552389
7.46685
0.904324
7.53228
1.2647
7.69774
1.64456
7.94293
2.00911
7.97493
2.15404
8.20809
2.16363
7.84505
2.14778
8.09567
1.95263
8.34802
1.44229
9.65234
0.561958
8.81984
3.70049
-0.423313
4.15661
-0.816724
9.48737
-1.56149
10.6545
-1.75404
8.52419
-1.81954
8.26878
-1.77955
7.98933
-1.65389
8.15971
-1.32625
7.71356
-0.996646
7.51502
-0.658834
7.30957
-0.363074
7.22287
-0.0625505
7.16705
0.224397
7.1652
0.523781
7.16809
0.821597
7.23494
1.18875
7.33108
1.53367
7.59812
1.80652
7.7036
1.92799
8.08582
1.94866
7.82177
1.93345
8.11207
1.87129
8.41366
1.09573
10.4336
0.495531
9.421
4.18986
-0.662437
4.81744
-1.11212
9.94207
-1.85983
11.4024
-1.98938
8.65361
-1.95604
8.23541
-1.88972
7.92359
-1.71142
7.9834
-1.4243
7.42907
-1.11175
7.20443
-0.818543
7.01721
-0.51443
6.91961
-0.229871
6.88294
0.0680219
6.86784
0.35838
6.87817
0.670674
6.92311
0.95451
7.04791
1.24889
7.30425
1.54263
7.40961
1.68404
7.94704
1.75902
7.7516
1.75247
8.12053
1.67673
8.48734
0.778726
11.3312
0.410974
9.77158
4.59313
-0.462506
5.2777
-0.787168
10.2673
-1.38383
11.9975
-1.59831
8.86608
-1.65475
8.28953
-1.60488
7.87175
-1.45433
7.83296
-1.1933
7.16992
-0.910809
6.92363
-0.60903
6.71603
-0.339146
6.65009
-0.0568349
6.60114
0.210104
6.60121
0.488318
6.60036
0.754014
6.65762
1.07102
6.73103
1.35219
7.02338
1.59491
7.16769
1.74688
7.79244
1.76417
7.73189
1.74914
8.13617
1.42877
8.8111
0.971519
11.7736
0.552104
10.1938
5.1442
-0.338021
5.61783
-0.505477
10.4381
-1.01528
12.5098
-1.53044
9.38295
-1.56649
8.32839
-1.48596
7.7952
-1.26686
7.61888
-1.05434
6.95851
-0.81617
6.68491
-0.579269
6.47893
-0.320464
6.39152
-0.0790041
6.35969
0.180477
6.3419
0.426029
6.35494
0.686899
6.39703
0.916977
6.50164
1.16186
6.77901
1.39167
6.93889
1.57182
7.61487
1.62725
7.68185
1.66405
8.10056
1.23952
9.23765
0.726468
12.2892
0.450908
10.4677
5.60245
-0.446438
6.06088
-0.705514
10.7002
-0.984785
12.789
-1.59589
9.9951
-1.56193
8.29502
-1.51476
7.74506
-1.37634
7.47868
-1.1288
6.71043
-0.911965
6.46771
-0.658404
6.22523
-0.430673
6.16374
-0.184154
6.11319
0.0420597
6.11564
0.282775
6.11428
0.513768
6.16594
0.779103
6.23613
0.984103
6.57404
1.20208
6.72123
1.35458
7.46042
1.38803
7.64753
1.36027
8.12553
0.735254
9.85954
0.408204
12.6077
0.280342
10.5944
5.88683
-0.260061
6.3184
-0.372791
10.8179
-0.503748
12.9186
-1.24778
10.7368
-1.37331
8.41963
-1.34074
7.71288
-1.12668
7.26527
-0.908391
6.49201
-0.697295
6.25535
-0.501273
6.02881
-0.272919
5.93486
-0.06032
5.90037
0.175908
5.87929
0.394505
5.89569
0.619313
5.94128
0.809871
6.04575
1.03767
6.34644
1.27599
6.48312
1.45902
7.27742
1.48214
7.62635
1.40093
8.20755
0.684357
10.5692
0.636198
12.6781
0.409389
10.8547
6.29572
-0.0572321
6.37456
-0.0779507
10.8385
-0.0954564
12.9362
-0.776601
11.4258
-1.18363
8.83008
-1.13416
7.66522
-1.02686
7.15882
-0.835939
6.29849
-0.656717
6.07437
-0.447049
5.81861
-0.259352
5.74683
-0.0539253
5.6947
0.135007
5.69013
0.340051
5.69046
0.52671
5.75437
0.759208
5.81339
0.924723
6.18135
1.10758
6.30145
1.27465
7.11051
1.34198
7.5601
0.997684
8.55199
0.33424
11.2186
0.28074
12.7166
0.204275
10.9446
6.4943
-0.232511
6.60264
-0.389864
10.9917
-0.236171
12.7772
-0.738493
11.9269
-1.32206
9.41178
-1.23083
7.57128
-1.06286
6.98503
-0.881374
6.11412
-0.688092
5.87951
-0.523206
5.65275
-0.33499
5.55811
-0.158226
5.51745
0.0378811
5.49373
0.215855
5.51235
0.40644
5.56385
0.565576
5.65354
0.772852
5.97328
0.947071
6.12562
1.04832
7.00934
1.1311
7.47739
0.489612
9.19675
-0.0882182
11.7978
0.0140086
12.6251
0.0413184
10.9056
6.51959
-0.0402966
6.63903
-0.0681954
11.0125
0.119707
12.5853
-0.174479
12.2186
-0.862924
10.0957
-0.941882
7.64791
-0.859851
6.9026
-0.718033
5.97254
-0.57418
5.73574
-0.383548
5.46303
-0.216904
5.39107
-0.0384458
5.33878
0.12979
5.32529
0.308859
5.33308
0.473186
5.39941
0.684084
5.44341
0.817114
5.84138
0.963905
5.97993
1.09414
6.87832
1.03536
7.53561
0.39153
9.83944
0.071451
12.1194
0.195062
12.4723
0.127392
10.9568
6.60132
0.0142095
6.62467
0.0717889
10.9502
0.278585
12.3742
0.237053
12.2629
-0.51613
10.8534
-0.904447
8.03821
-0.733989
6.73159
-0.635164
5.87089
-0.48645
5.58456
-0.35536
5.33018
-0.196957
5.23221
-0.0457338
5.1871
0.117839
5.16145
0.269053
5.18173
0.426019
5.24214
0.559539
5.30893
0.740373
5.6591
0.838585
5.88193
1.04856
6.66902
0.761139
7.82368
-0.0206191
10.6232
-0.185633
12.279
0.0124835
12.2759
0.0524996
10.8681
6.63958
-0.125699
6.75203
-0.0958257
10.9181
0.0601215
12.2161
0.140556
12.1814
-0.312495
11.3086
-0.802701
8.52415
-0.776492
6.69893
-0.660392
5.75176
-0.569333
5.49375
-0.413704
5.17578
-0.272482
5.0909
-0.118929
5.03343
0.0251486
5.01717
0.172083
5.03455
0.313203
5.101
0.477703
5.14482
0.551543
5.58516
0.631983
5.80097
0.723475
6.57861
0.166303
8.38225
-0.476803
11.2701
-0.335015
12.1469
-0.209623
12.1332
-0.0734078
10.7226
6.59366
-0.0288496
6.78236
0.040103
10.8485
0.183898
12.0701
0.532453
11.8307
0.125236
11.7131
-0.481918
9.12393
-0.645452
6.86535
-0.509135
5.61676
-0.411775
5.39645
-0.307368
5.07068
-0.172436
4.95569
-0.0381964
4.89882
0.106868
4.8719
0.244717
4.89644
0.378126
4.96723
0.490449
5.03263
0.637038
5.43938
0.75733
5.68038
0.627502
6.70469
0.053096
8.95433
-0.312565
11.6422
-0.054275
11.8859
0.0744084
11.994
0.109246
10.7292
6.73395
0.0936772
6.69013
0.264576
10.6783
0.312974
12.023
0.559077
11.5858
0.712786
11.565
-0.0205436
9.85589
-0.461324
7.30745
-0.444913
5.59748
-0.373144
5.32362
-0.267542
4.96454
-0.155177
4.84301
-0.0300701
4.77351
0.0924591
4.74913
0.219237
4.76945
0.333161
4.85297
0.453507
4.91149
0.523978
5.36806
0.590959
5.6146
0.321415
6.97848
-0.464598
9.74202
-0.448604
11.6264
-0.134698
11.5682
-0.0896815
11.975
-0.0494404
10.7253
6.74925
-0.119439
6.81013
-0.00938285
10.5691
0.0892175
11.9246
0.344178
11.3333
0.630321
11.2788
0.0810111
10.4029
-0.393244
7.77151
-0.465709
5.66999
-0.383376
5.24218
-0.307142
4.88902
-0.208865
4.74476
-0.0972797
4.66177
0.0243723
4.62727
0.136334
4.65719
0.237921
4.75139
0.312851
4.83725
0.407693
5.2731
0.31404
5.70418
-0.17177
7.45731
-0.83913
10.4089
-0.544906
11.3382
-0.294723
11.3295
-0.272906
11.9847
-0.0946967
10.5712
6.66149
0.0486407
6.76162
0.233576
10.3822
0.289724
11.8725
0.467696
11.1565
0.85084
10.8957
0.695032
10.5593
0.00533735
8.4646
-0.301767
5.98304
-0.317567
5.25813
-0.213852
4.78419
-0.129587
4.66037
-0.0282272
4.56012
0.0767947
4.52207
0.181967
4.55189
0.269525
4.66325
0.349463
4.75662
0.376564
5.2469
0.123688
5.95923
-0.510139
8.09044
-0.773041
10.6684
-0.346368
10.9094
-0.143637
11.1425
-0.118894
11.9689
0.0269603
10.3941
6.68595
0.0624919
6.70012
0.288742
10.1583
0.400559
11.7608
0.57619
10.9903
0.859212
10.6184
0.962947
10.4604
0.317987
9.1069
-0.0771908
6.37197
-0.212165
5.39073
-0.164279
4.7354
-0.094124
4.59008
-0.0186367
4.48446
0.0744759
4.42865
0.154613
4.47152
0.237334
4.5805
0.312059
4.68128
0.244294
5.31222
-0.149096
6.35095
-0.855546
8.79381
-0.721575
10.5346
-0.437443
10.6349
-0.255552
10.9786
-0.146115
11.8522
0.0443273
10.1684
6.72431
-0.0257281
6.72675
0.143088
9.99409
0.268354
11.6372
0.405527
10.8462
0.617014
10.4
1.00856
10.065
0.717362
9.39427
0.0662825
7.01989
-0.224624
5.68342
-0.188316
4.70037
-0.128359
4.53033
-0.0570557
4.41297
0.0104679
4.36119
0.0753165
4.40648
0.138103
4.51765
0.166927
4.65319
-0.0904798
5.56899
-0.73362
6.98629
-1.2071
9.2634
-0.799282
10.1309
-0.573495
10.4177
-0.448127
10.852
-0.285885
11.6569
-0.0578213
9.90394
6.64975
-0.0246517
6.75075
0.229244
9.73954
0.420805
11.4517
0.526609
10.7489
0.736014
10.1968
1.01635
9.78642
0.973636
9.44378
0.365316
7.6329
0.00486167
6.04402
-0.100095
4.80304
-0.0635348
4.49298
-0.0141442
4.36335
0.0381681
4.30903
0.0933264
4.35123
0.139081
4.4714
0.0838487
4.70789
-0.255903
5.90937
-0.878689
7.60354
-1.04585
9.43143
-0.727834
9.816
-0.496633
10.1914
-0.376863
10.7236
-0.160896
11.4094
0.0790455
9.65747
6.70779
0.0201089
6.73442
0.277088
9.4858
0.544535
11.188
0.626091
10.6621
0.785335
10.0386
0.987491
9.58189
1.31204
9.11788
0.897129
8.0427
0.176957
6.76215
-0.00816646
4.98767
-0.0162845
4.50206
0.00876964
4.33844
0.0326981
4.28548
0.0669659
4.31691
0.0727762
4.46535
-0.102808
4.88232
-0.797376
6.59868
-1.21764
8.01954
-0.987093
9.20149
-0.754317
9.58541
-0.549442
9.9904
-0.436079
10.6046
-0.189422
11.1553
0.0442287
9.42942
6.73443
-0.0478401
-1.29121
-0.065462
-1.45748
-0.0719623
-1.44932
-0.0817783
-1.47688
-0.0876095
-1.46515
-0.0807841
-1.49367
-0.0525941
-1.56312
-0.0406646
-1.65269
-0.0911436
-1.70395
-0.18704
-1.62138
-0.267721
-1.52281
-0.32259
-1.42807
-0.334124
-1.33364
-0.339597
-1.28992
-0.328745
-1.26471
-0.310421
-1.25581
-0.278662
-1.2563
-0.248845
-1.31683
-0.21072
-1.32532
-0.179335
-1.36298
-0.14662
-1.41734
-0.115159
-1.46353
-0.0878271
-1.47765
-0.0669111
-1.52453
-0.0449999
-1.55695
-0.0225997
-1.58419
-0.011326
-1.62071
-0.00445198
-1.64159
-0.000388488
-1.65327
-1.63223
0.0562432
-1.35384
0.0346787
-1.40425
0.0175492
-1.37605
-0.0114974
-1.36189
-0.024621
-1.36664
-0.0275789
-1.38106
-0.0128062
-1.45157
-0.0174841
-1.50595
-0.0618176
-1.56335
-0.141572
-1.48406
-0.215193
-1.4092
-0.266837
-1.33646
-0.295308
-1.27391
-0.298375
-1.23603
-0.297329
-1.21637
-0.278484
-1.19722
-0.252705
-1.22888
-0.219217
-1.25477
-0.187681
-1.28696
-0.158031
-1.3237
-0.128377
-1.36423
-0.0982213
-1.40573
-0.0736941
-1.45389
-0.054972
-1.48387
-0.0355139
-1.51952
-0.0194991
-1.55102
-0.0104686
-1.58316
-0.00431013
-1.60416
-0.00114334
-1.61453
-1.59125
-0.00664896
-1.34706
-0.0450527
-1.33079
-0.0728678
-1.29316
-0.0896356
-1.26191
-0.105485
-1.2683
-0.109711
-1.28963
-0.107423
-1.35524
-0.106008
-1.39268
-0.150527
-1.44592
-0.221042
-1.3681
-0.279482
-1.31247
-0.317816
-1.25801
-0.336888
-1.21065
-0.3432
-1.18103
-0.328986
-1.15523
-0.313163
-1.14641
-0.283578
-1.17789
-0.249619
-1.2118
-0.217452
-1.25443
-0.186532
-1.28243
-0.154935
-1.32396
-0.123586
-1.36657
-0.0955538
-1.41335
-0.0739419
-1.45474
-0.053261
-1.48926
-0.036418
-1.52602
-0.0218736
-1.55703
-0.011275
-1.57917
-0.00326859
-1.58976
-1.56265
-0.0464339
-1.29609
-0.0886665
-1.24299
-0.126515
-1.20024
-0.142728
-1.17498
-0.163276
-1.18535
-0.171209
-1.21586
-0.177525
-1.27876
-0.172974
-1.3183
-0.214429
-1.34853
-0.274522
-1.27088
-0.316893
-1.21248
-0.347234
-1.17036
-0.364429
-1.13353
-0.368804
-1.11489
-0.356476
-1.10288
-0.339188
-1.11009
-0.30926
-1.12824
-0.275136
-1.15408
-0.24262
-1.2022
-0.208713
-1.24274
-0.17644
-1.28968
-0.144204
-1.33429
-0.114519
-1.38279
-0.0891126
-1.43094
-0.0668145
-1.46841
-0.0476825
-1.50639
-0.0304554
-1.53475
-0.0180661
-1.55741
-0.00878926
-1.5682
-1.54116
-0.0610184
-1.22626
-0.0964816
-1.16251
-0.131243
-1.11821
-0.155253
-1.10056
-0.178735
-1.12345
-0.191349
-1.16716
-0.202482
-1.23416
-0.202339
-1.29173
-0.244325
-1.29128
-0.296092
-1.2057
-0.328674
-1.1497
-0.35252
-1.11112
-0.362674
-1.08504
-0.366245
-1.06808
-0.362096
-1.06051
-0.343395
-1.0634
-0.315975
-1.07657
-0.283706
-1.11298
-0.251152
-1.15745
-0.21718
-1.20791
-0.183821
-1.25768
-0.151626
-1.30833
-0.129549
-1.36059
-0.0948763
-1.41836
-0.0714207
-1.45841
-0.0514757
-1.49792
-0.0331296
-1.52624
-0.0194778
-1.5494
-0.00888224
-1.56022
-1.53412
-0.0531817
-1.16228
-0.0975915
-1.07385
-0.13443
-1.03951
-0.167027
-1.0305
-0.195191
-1.07158
-0.220349
-1.13532
-0.232831
-1.2084
-0.239228
-1.26183
-0.282639
-1.25723
-0.320103
-1.17374
-0.348031
-1.11146
-0.36456
-1.06892
-0.371244
-1.04342
-0.371934
-1.02866
-0.365354
-1.02662
-0.348254
-1.03401
-0.322637
-1.05578
-0.293425
-1.08623
-0.26015
-1.13336
-0.225819
-1.18005
-0.192432
-1.23137
-0.162406
-1.28526
-0.134893
-1.33996
-0.106546
-1.39738
-0.0762775
-1.44912
-0.0563789
-1.49611
-0.0373108
-1.52801
-0.0224731
-1.55313
-0.0104851
-1.5669
-1.54202
-0.0632779
-1.08374
-0.107752
-0.986304
-0.147301
-0.962382
-0.185647
-0.962883
-0.219172
-1.02141
-0.249831
-1.1063
-0.269941
-1.18518
-0.283658
-1.25123
-0.327408
-1.23332
-0.35809
-1.16206
-0.376351
-1.09849
-0.384914
-1.0476
-0.385974
-1.01859
-0.381783
-1.00447
-0.374375
-1.00317
-0.358059
-1.01272
-0.334429
-1.03286
-0.306742
-1.06395
-0.274658
-1.10998
-0.239915
-1.16002
-0.20663
-1.21558
-0.175422
-1.27137
-0.14561
-1.32751
-0.116241
-1.38484
-0.0900448
-1.43849
-0.0644741
-1.49307
-0.0426639
-1.53372
-0.0254256
-1.56396
-0.0122086
-1.5821
-1.55946
-0.069333
-0.997845
-0.118154
-0.898284
-0.164874
-0.884456
-0.208633
-0.8943
-0.245966
-0.976922
-0.284209
-1.06618
-0.313334
-1.15596
-0.334472
-1.22605
-0.374846
-1.21595
-0.401701
-1.15908
-0.410237
-1.10113
-0.41146
-1.04791
-0.407589
-1.01164
-0.400826
-0.993054
-0.391574
-0.989571
-0.374556
-1.00939
-0.350967
-1.02119
-0.323509
-1.05368
-0.29133
-1.09677
-0.256819
-1.14793
-0.222329
-1.20693
-0.190444
-1.26656
-0.159424
-1.32133
-0.13006
-1.37754
-0.102841
-1.43125
-0.0771088
-1.48452
-0.0503547
-1.53553
-0.0303524
-1.57832
-0.0140356
-1.60188
-1.57693
-0.0804317
-0.898103
-0.127428
-0.815959
-0.184719
-0.797897
-0.227253
-0.836822
-0.272985
-0.922515
-0.316921
-1.02463
-0.352776
-1.1173
-0.383522
-1.19256
-0.419838
-1.19885
-0.443459
-1.16073
-0.449284
-1.11141
-0.442661
-1.06233
-0.433207
-1.02076
-0.423256
-0.993739
-0.411499
-0.986479
-0.392744
-0.998317
-0.36915
-1.01599
-0.341765
-1.04973
-0.309399
-1.09232
-0.275011
-1.1446
-0.241233
-1.20748
-0.207722
-1.26788
-0.174699
-1.32006
-0.143979
-1.37552
-0.11645
-1.43174
-0.0893094
-1.47962
-0.0616368
-1.53331
-0.0363137
-1.59101
-0.0166905
-1.61744
-1.59149
-0.0830621
-0.794052
-0.13528
-0.730072
-0.190724
-0.719942
-0.239972
-0.77122
-0.291005
-0.864019
-0.341056
-0.974276
-0.385343
-1.06521
-0.422825
-1.15006
-0.458845
-1.17598
-0.48142
-1.16142
-0.486236
-1.12466
-0.473947
-1.08649
-0.460975
-1.04071
-0.447028
-1.00734
-0.432823
-0.993834
-0.412201
-1.00075
-0.38786
-1.01917
-0.359992
-1.05149
-0.327027
-1.09332
-0.292743
-1.14686
-0.258488
-1.21199
-0.223237
-1.26866
-0.189179
-1.32316
-0.158497
-1.37878
-0.129172
-1.44238
-0.102506
-1.48163
-0.0737805
-1.53764
-0.0445365
-1.59719
-0.0200663
-1.62706
-1.62741
-0.0813425
-0.692191
-0.142762
-0.636721
-0.19864
-0.645455
-0.252472
-0.706105
-0.30507
-0.802782
-0.3644
-0.911771
-0.408531
-1.01174
-0.454773
-1.10068
-0.491971
-1.14579
-0.515241
-1.15752
-0.52083
-1.14222
-0.508001
-1.11893
-0.490928
-1.07147
-0.472032
-1.0328
-0.45168
-1.01102
-0.430279
-1.01065
-0.405087
-1.02619
-0.376846
-1.05782
-0.344097
-1.09889
-0.310117
-1.15205
-0.274869
-1.21381
-0.23882
-1.26972
-0.20408
-1.33496
-0.173262
-1.38308
-0.142719
-1.43864
-0.116334
-1.48835
-0.0866741
-1.54136
-0.0543947
-1.59377
-0.0259104
-1.62921
-1.61303
-0.0780471
-0.594958
-0.144389
-0.541979
-0.204964
-0.578434
-0.262817
-0.637894
-0.317376
-0.739047
-0.371047
-0.854967
-0.422142
-0.963375
-0.480088
-1.04252
-0.516725
-1.10739
-0.545854
-1.14966
-0.552411
-1.15391
-0.542979
-1.14435
-0.520691
-1.10805
-0.496447
-1.06606
-0.469781
-1.03632
-0.446977
-1.02897
-0.420568
-1.03743
-0.391671
-1.06703
-0.359021
-1.10833
-0.324483
-1.16138
-0.29081
-1.22941
-0.258726
-1.27794
-0.220249
-1.33778
-0.187101
-1.38689
-0.157582
-1.44044
-0.129137
-1.49636
-0.0982735
-1.54623
-0.0649414
-1.59165
-0.0314327
-1.62651
-1.60776
-0.0784262
-0.48916
-0.14512
-0.45071
-0.209978
-0.504711
-0.270852
-0.567557
-0.330714
-0.66971
-0.385098
-0.791051
-0.425223
-0.908824
-0.487104
-0.989234
-0.531468
-1.06648
-0.565568
-1.1348
-0.576205
-1.15794
-0.570418
-1.16483
-0.549678
-1.1438
-0.517553
-1.1055
-0.488868
-1.06878
-0.461964
-1.05348
-0.434063
-1.0533
-0.404621
-1.08066
-0.372122
-1.12429
-0.337498
-1.20385
-0.30256
-1.24635
-0.272488
-1.28526
-0.238718
-1.34755
-0.20476
-1.39382
-0.173444
-1.44853
-0.14172
-1.50572
-0.108712
-1.55619
-0.0728673
-1.60068
-0.0366066
-1.63313
-1.60732
-0.080566
-0.380144
-0.145127
-0.36387
-0.212384
-0.429491
-0.275699
-0.495511
-0.334091
-0.601824
-0.391818
-0.721834
-0.436987
-0.845218
-0.495673
-0.93684
-0.540407
-1.02153
-0.577983
-1.11029
-0.593106
-1.15179
-0.594112
-1.17256
-0.57509
-1.17324
-0.544308
-1.149
-0.509158
-1.10781
-0.474097
-1.08324
-0.446267
-1.07541
-0.416986
-1.10007
-0.384587
-1.1632
-0.347706
-1.21614
-0.313788
-1.25595
-0.285255
-1.29707
-0.254084
-1.35634
-0.220051
-1.40677
-0.186609
-1.46176
-0.152368
-1.51958
-0.117311
-1.60285
-0.0804379
-1.61467
-0.0412732
-1.64582
-1.63775
-0.078745
-0.275079
-0.145563
-0.27862
-0.215351
-0.35298
-0.275492
-0.425624
-0.33366
-0.536882
-0.388682
-0.657094
-0.444301
-0.774815