/*--------------------------------*- C++ -*----------------------------------*\
| =========                 |                                                 |
| \\      /  F ield         | OpenFOAM: The Open Source CFD Toolbox           |
|  \\    /   O peration     | Version:  2112                                  |
|   \\  /    A nd           | Website:  www.openfoam.com                      |
|    \\/     M anipulation  |                                                 |
\*---------------------------------------------------------------------------*/
FoamFile
{
    version     2.0;
    format      ascii;
    arch        "LSB;label=32;scalar=64";
    class       volScalarField;
    location    "0.00373";
    object      p;
}
// * * * * * * * * * * * * * * * * * * * * * * * * * * * * * * * * * * * * * //

dimensions      [1 -1 -2 0 0 0 0];

internalField   nonuniform List<scalar> 
13875
(
951595
984282
973629
975770
973359
974384
974507
974278
974857
975055
975122
975102
974737
974840
974884
974640
974483
974432
973911
973948
973087
975626
972412
982823
945926
733816
659560
672294
677315
670289
668560
668592
670349
677702
679005
678998
678431
670206
669244
670415
677768
678621
677061
670248
668202
669251
676976
672342
657332
731065
736907
635546
664396
653463
648166
645865
645008
645529
647461
646541
647989
647634
645821
645595
645464
648544
645169
647783
646068
646200
647608
651836
661879
632257
733730
743554
636190
665275
653609
648441
646053
645145
645583
645319
644628
644989
645257
645902
645710
645534
645693
643679
645547
646155
646407
647889
651956
662621
632862
739240
757393
639196
667818
654290
649289
646612
645547
645817
645413
644796
645213
645508
646161
646013
645780
645768
643861
645632
646461
646972
648696
652539
664895
635502
750067
759094
647854
673572
656223
651110
647802
646390
646373
645745
645288
645833
646160
646702
646626
646317
646032
644386
645958
647158
648148
650448
654406
670464
643235
751650
765143
668368
685790
661116
654875
650240
648096
647565
646603
646326
646715
647206
647812
647829
647408
646691
645533
646958
648725
650641
654316
660075
682019
665951
755812
791415
718426
711761
674591
663105
655471
651637
650123
648651
648420
648550
649251
650057
650249
649642
648353
647892
649305
651970
655620
662253
673078
707153
715553
781988
909175
828076
766911
704865
679931
666002
658798
655445
653163
652727
652499
653420
654659
655132
654214
652252
652717
654476
658594
665500
678247
701556
760745
823680
910545
1.5259e+06
1.02979e+06
835284
742633
701984
681192
670613
665244
662433
661576
660979
662042
663992
664811
663608
661101
662198
664475
669798
680411
700503
739939
831328
1.02674e+06
1.52097e+06
2.91216e+06
1.3945e+06
964528
806735
739684
708123
692736
685130
681624
680000
679070
679865
682684
683913
682831
680304
681390
684283
690909
705419
735416
798851
947727
1.35436e+06
2.87166e+06
5.62527e+06
2.35116e+06
1.31801e+06
969412
825361
767634
741809
729773
724304
721716
720582
720712
723989
725624
725051
723636
724856
729106
739595
763706
819053
955538
1.28191e+06
2.28471e+06
5.60112e+06
5.41683e+06
4.83741e+06
2.43766e+06
1.50602e+06
1.06867e+06
930582
872902
847033
835877
831340
829641
829065
831507
833514
834032
835326
839058
848869
873642
930886
1.06838e+06
1.47606e+06
2.31402e+06
4.88667e+06
5.3728e+06
4.89541e+06
4.69816e+06
4.93923e+06
4.36378e+06
1.84422e+06
1.45214e+06
1.30162e+06
1.23407e+06
1.20852e+06
1.19857e+06
1.19496e+06
1.19369e+06
1.19457e+06
1.19649e+06
1.19999e+06
1.20632e+06
1.21948e+06
1.24955e+06
1.32896e+06
1.51041e+06
1.99522e+06
4.43371e+06
4.92248e+06
4.7624e+06
4.80708e+06
4.13703e+06
4.279e+06
4.80183e+06
4.76815e+06
4.47422e+06
3.35292e+06
3.0968e+06
2.77977e+06
2.6462e+06
2.59467e+06
2.57331e+06
2.56329e+06
2.55992e+06
2.56361e+06
2.57573e+06
2.6017e+06
2.65813e+06
2.7954e+06
3.15581e+06
3.44996e+06
4.46579e+06
4.75944e+06
4.82112e+06
4.4365e+06
4.37724e+06
3.75956e+06
3.80627e+06
4.43354e+06
5.04801e+06
6.37643e+06
7.54892e+06
8.16987e+06
8.10073e+06
8.22318e+06
8.12477e+06
8.15269e+06
8.08515e+06
8.10528e+06
8.09082e+06
8.13389e+06
8.1305e+06
8.21133e+06
8.11192e+06
8.23892e+06
7.64191e+06
6.42301e+06
5.10667e+06
4.55882e+06
3.96841e+06
3.99656e+06
2.95753e+06
3.32458e+06
4.38145e+06
5.24686e+06
6.45182e+06
7.33291e+06
7.67595e+06
7.58707e+06
7.47447e+06
7.37135e+06
7.31542e+06
7.28571e+06
7.27319e+06
7.27582e+06
7.31417e+06
7.36431e+06
7.47885e+06
7.57408e+06
7.67707e+06
7.38502e+06
6.55655e+06
5.28859e+06
4.45923e+06
3.43988e+06
3.13699e+06
2.25372e+06
2.97557e+06
4.33831e+06
5.18755e+06
5.80078e+06
6.18106e+06
6.22625e+06
6.21341e+06
6.17322e+06
6.16732e+06
6.16338e+06
6.15535e+06
6.15166e+06
6.15251e+06
6.15757e+06
6.15485e+06
6.16384e+06
6.1865e+06
6.18861e+06
6.16661e+06
5.86151e+06
5.28088e+06
4.31572e+06
2.78189e+06
2.05872e+06
1.1583e+06
1.93837e+06
3.66297e+06
4.2151e+06
4.54257e+06
4.80947e+06
4.99345e+06
5.173e+06
5.33678e+06
5.45757e+06
5.52364e+06
5.55465e+06
5.56504e+06
5.55318e+06
5.52095e+06
5.44965e+06
5.33711e+06
5.17683e+06
5.00725e+06
4.84313e+06
4.60854e+06
4.31584e+06
3.70545e+06
1.94771e+06
1.13558e+06
556714
1.23328e+06
2.72253e+06
3.16609e+06
3.41048e+06
3.76517e+06
4.16462e+06
4.47716e+06
4.70616e+06
4.85301e+06
4.94049e+06
4.99051e+06
5.01021e+06
4.99515e+06
4.94835e+06
4.86238e+06
4.72537e+06
4.49916e+06
4.17962e+06
3.77529e+06
3.43127e+06
3.18937e+06
2.71526e+06
1.23986e+06
553435
646387
1.12255e+06
1.75815e+06
2.23242e+06
2.5969e+06
3.05122e+06
3.52324e+06
3.87761e+06
4.12504e+06
4.28089e+06
4.37987e+06
4.43919e+06
4.46143e+06
4.44458e+06
4.38999e+06
4.29352e+06
4.14255e+06
3.89125e+06
3.51607e+06
3.02286e+06
2.56816e+06
2.20376e+06
1.71739e+06
1.06398e+06
638742
994787
1.03857e+06
1.20313e+06
1.69834e+06
2.05498e+06
2.5698e+06
3.00337e+06
3.33689e+06
3.58247e+06
3.74268e+06
3.84633e+06
3.9069e+06
3.92898e+06
3.90946e+06
3.85074e+06
3.74812e+06
3.58977e+06
3.3396e+06
2.9908e+06
2.53837e+06
2.00786e+06
1.66188e+06
1.16402e+06
1.01276e+06
1.00807e+06
1.35782e+06
1.05366e+06
1.06252e+06
1.36891e+06
1.70175e+06
2.2148e+06
2.57882e+06
2.87141e+06
3.10379e+06
3.25994e+06
3.36087e+06
3.42059e+06
3.44099e+06
3.41909e+06
3.35888e+06
3.25659e+06
3.09881e+06
2.863e+06
2.55949e+06
2.1989e+06
1.65227e+06
1.33492e+06
1.04483e+06
1.036e+06
1.36723e+06
1.41239e+06
1.07959e+06
1.06937e+06
1.22242e+06
1.49233e+06
1.90508e+06
2.21128e+06
2.48136e+06
2.6874e+06
2.8274e+06
2.92568e+06
2.98303e+06
3.00368e+06
2.98077e+06
2.92196e+06
2.81802e+06
2.6737e+06
2.46453e+06
2.17704e+06
1.87794e+06
1.46399e+06
1.19309e+06
1.05137e+06
1.06481e+06
1.38449e+06
1.41181e+06
1.12464e+06
1.0881e+06
1.15293e+06
1.35021e+06
1.65115e+06
1.90661e+06
2.14953e+06
2.33163e+06
2.45862e+06
2.54906e+06
2.60479e+06
2.62057e+06
2.60197e+06
2.54674e+06
2.44853e+06
2.31782e+06
2.13141e+06
1.87413e+06
1.61914e+06
1.32661e+06
1.12862e+06
1.07014e+06
1.11293e+06
1.38526e+06
1.41722e+06
1.19783e+06
1.1276e+06
1.12347e+06
1.24536e+06
1.45196e+06
1.66437e+06
1.87299e+06
2.02872e+06
2.14238e+06
2.22573e+06
2.26978e+06
2.28741e+06
2.26736e+06
2.21965e+06
2.131e+06
2.01042e+06
1.85007e+06
1.63374e+06
1.42221e+06
1.22963e+06
1.10462e+06
1.10904e+06
1.18222e+06
1.38763e+06
1.43521e+06
1.32626e+06
1.17244e+06
1.12428e+06
1.17236e+06
1.30337e+06
1.47271e+06
1.64309e+06
1.77657e+06
1.87717e+06
1.94858e+06
1.98824e+06
2.00019e+06
1.98498e+06
1.93908e+06
1.86434e+06
1.7572e+06
1.61951e+06
1.44447e+06
1.27147e+06
1.14965e+06
1.10505e+06
1.15303e+06
1.319e+06
1.40878e+06
1.48563e+06
1.47662e+06
1.20401e+06
1.12289e+06
1.11913e+06
1.18706e+06
1.31309e+06
1.44833e+06
1.55821e+06
1.64621e+06
1.71029e+06
1.74207e+06
1.75557e+06
1.73889e+06
1.70246e+06
1.63637e+06
1.54329e+06
1.42994e+06
1.2923e+06
1.16456e+06
1.10108e+06
1.10457e+06
1.18058e+06
1.45199e+06
1.46584e+06
1.59393e+06
1.53967e+06
1.22861e+06
1.11536e+06
1.08529e+06
1.10579e+06
1.1909e+06
1.29212e+06
1.38206e+06
1.45554e+06
1.50694e+06
1.53779e+06
1.54655e+06
1.53379e+06
1.49996e+06
1.44496e+06
1.3662e+06
1.27307e+06
1.17054e+06
1.08515e+06
1.06684e+06
1.09703e+06
1.20264e+06
1.4992e+06
1.59028e+06
1.81613e+06
1.59328e+06
1.24286e+06
1.09883e+06
1.04864e+06
1.04559e+06
1.09104e+06
1.16136e+06
1.22966e+06
1.28966e+06
1.33572e+06
1.35856e+06
1.36798e+06
1.35357e+06
1.32752e+06
1.27988e+06
1.21497e+06
1.14326e+06
1.07183e+06
1.02689e+06
1.03037e+06
1.08054e+06
1.22971e+06
1.58127e+06
1.75435e+06
1.85541e+06
1.64637e+06
1.26902e+06
1.08397e+06
1.00928e+06
991042
1.00997e+06
1.05625e+06
1.10599e+06
1.15321e+06
1.18774e+06
1.20971e+06
1.2156e+06
1.20635e+06
1.18138e+06
1.14433e+06
1.09445e+06
1.04307e+06
996998
977579
995393
1.06865e+06
1.2514e+06
1.62961e+06
1.85367e+06
1.85365e+06
1.67679e+06
1.31505e+06
1.08209e+06
976504
944357
942122
969228
1.00146e+06
1.03393e+06
1.06358e+06
1.07835e+06
1.08558e+06
1.07644e+06
1.05777e+06
1.02669e+06
989722
956469
928696
930604
961157
1.06442e+06
1.28517e+06
1.66152e+06
1.85234e+06
1.84303e+06
1.68123e+06
1.37391e+06
1.08427e+06
946840
897570
886686
895664
916134
938621
957638
970930
974769
969010
951572
930937
906288
885251
873717
884385
933152
1.06795e+06
1.34728e+06
1.66893e+06
1.8472e+06
1.82152e+06
1.68061e+06
1.49578e+06
1.09684e+06
926081
855936
833710
831053
840883
852664
867796
875314
879583
873832
862954
846947
832832
821915
824589
844966
912495
1.07599e+06
1.43696e+06
1.66545e+06
1.82953e+06
1.77966e+06
1.677e+06
1.57452e+06
1.12578e+06
919347
822018
786559
777660
778922
784417
791748
797840
799274
796126
787075
779243
772458
769331
777150
811750
907760
1.10055e+06
1.59048e+06
1.65912e+06
1.79378e+06
1.75185e+06
1.65817e+06
1.5724e+06
1.15642e+06
921381
794960
744566
727576
723614
723303
726382
728855
730079
726309
722436
718506
716924
719864
736385
785332
912130
1.14803e+06
1.59408e+06
1.64331e+06
1.72906e+06
1.71276e+06
1.61901e+06
1.56739e+06
1.21999e+06
932082
778970
710405
684451
675505
672915
671756
672568
671840
670240
668410
669115
671183
678365
702690
770742
919831
1.21563e+06
1.58399e+06
1.60466e+06
1.69172e+06
1.66994e+06
1.56458e+06
1.55349e+06
1.34717e+06
958076
779262
685365
647311
632377
625621
622850
620924
620748
619692
620531
622566
627638
641072
677397
771460
942174
1.35219e+06
1.56238e+06
1.54937e+06
1.65242e+06
1.64052e+06
1.51589e+06
1.51565e+06
1.3508e+06
989617
782631
670409
617880
596852
588103
581810
579132
577882
578576
579642
584686
593259
612738
664583
779530
989440
1.35977e+06
1.5172e+06
1.5021e+06
1.61602e+06
1.60499e+06
1.47309e+06
1.44022e+06
1.34719e+06
1.05649e+06
796088
670801
595962
565671
551207
544664
540232
539630
540067
543242
548975
561898
591620
664755
791790
1.06475e+06
1.35425e+06
1.42238e+06
1.46294e+06
1.58914e+06
1.56044e+06
1.43347e+06
1.36045e+06
1.33438e+06
1.19068e+06
824867
674805
584482
542215
524758
513664
509485
507331
508797
512209
521956
540063
581741
668465
819944
1.21799e+06
1.33853e+06
1.34294e+06
1.43147e+06
1.55296e+06
1.52661e+06
1.40261e+06
1.29876e+06
1.3e+06
1.18988e+06
866577
680983
584662
526502
498088
485843
479803
478490
478903
484924
495986
523561
582288
683220
880746
1.21788e+06
1.30355e+06
1.2876e+06
1.40144e+06
1.50843e+06
1.47663e+06
1.37483e+06
1.25127e+06
1.23163e+06
1.18184e+06
954454
699743
588147
521424
484197
463621
456814
453800
456117
462198
481425
517792
585170
708181
988815
1.20206e+06
1.23181e+06
1.24197e+06
1.37195e+06
1.47478e+06
1.42359e+06
1.34455e+06
1.21713e+06
1.16767e+06
1.15972e+06
1.04606e+06
737073
598121
522069
469321
445238
434381
431889
433779
444243
467794
518533
594511
758589
1.05455e+06
1.16696e+06
1.16674e+06
1.21158e+06
1.34551e+06
1.43242e+06
1.38431e+06
1.30969e+06
1.18986e+06
1.11661e+06
1.11016e+06
1.04164e+06
801802
615818
524097
469106
435491
420113
414364
419318
434090
467865
523686
618498
865624
1.04936e+06
1.09764e+06
1.11334e+06
1.18848e+06
1.31007e+06
1.38112e+06
1.34239e+06
1.27594e+06
1.17093e+06
1.07309e+06
1.04444e+06
1.02803e+06
936032
654376
532951
470538
434801
409999
402657
409194
431910
468950
534872
660912
930565
1.02799e+06
1.03316e+06
1.07147e+06
1.17126e+06
1.27587e+06
1.34684e+06
1.29545e+06
1.23349e+06
1.14987e+06
1.04671e+06
996391
996414
935213
733194
554202
475266
435416
409438
397474
409029
432429
472878
559753
746727
927332
982342
984010
1.04408e+06
1.1521e+06
1.23872e+06
1.30219e+06
1.25412e+06
1.19831e+06
1.12995e+06
1.02693e+06
956646
939470
923661
844113
594942
485341
437096
409842
397939
409600
435556
484848
615216
842325
915969
927596
947473
1.02626e+06
1.13136e+06
1.19981e+06
1.25232e+06
1.17122e+06
1.14623e+06
1.10041e+06
1.01269e+06
932728
894994
897410
842204
681046
508531
443731
411973
400004
411609
443388
508728
725071
840771
888843
886240
925763
1.01116e+06
1.10093e+06
1.14499e+06
1.16441e+06
1.04272e+06
1.07564e+06
1.05921e+06
990597
913238
856416
849403
831552
765576
558632
461487
418137
405545
417676
462256
558829
763728
829107
844314
850950
908937
990399
1.05647e+06
1.07424e+06
1.03878e+06
75328.6
75868.6
76248
76243.4
76364.8
76898.9
77179
77784.2
78072.3
78254
78200.3
78231.1
78436.1
78772.4
79166.1
79494
79751.9
80547.3
82186.6
84427.4
86872.4
89061.7
91050.9
94463.6
99690.9
112489
161983
208365
215985
215253
75696.1
76621.4
76974.9
76961.9
76900.8
77220.3
77503.8
78159.3
78541.7
78883.1
79074.1
79118.1
79267.6
79515.7
79670.4
79697.7
79820.8
80113
80921.7
82704.2
85338.4
87335.7
90789.6
94881
104486
140732
190450
204254
210418
210934
76284.6
77561.2
77653
77402
77269.6
77560.1
77876.3
78545.6
78992
79409.9
79647.2
79824.1
79952.9
79997.4
79969.3
79785.7
79705.7
79582.5
80045.3
81443.2
83787.5
86662.5
90751.9
96952.4
117059
182443
198036
202646
205892
202297
76936.9
78294.5
78030.7
77723
77669.2
78048.1
78406.2
79042.2
79473.9
79898.5
80194.4
80414
80513
80360
80130
79844.2
79532.6
79313.4
79587.2
80790
82997.9
86484.5
91231
103824
159764
194471
199433
201576
201604
198594
77821.8
78651.3
78393.1
78077.6
78156.1
78564.2
78913.1
79500.8
79898.3
80355.2
80737.5
80935.9
81021.9
80747.7
80334.9
79876.2
79483.8
79229.5
79407
80532.2
82768.2
86592.2
94449.5
126756
185664
196929
199314
198908
196861
195521
78422.3
78800.7
78631.8
78465.8
78683.7
79072.2
79392
79876.4
80249.1
80875.3
81325.9
81390.5
81409.9
81095.3
80646
80105.7
79573.7
79246
79381.9
80480
82780.9
88104.9
104744
171197
192537
197007
197058
194848
193453
193726
78788.3
78865.8
78817.8
78868
79189.5
79588.8
79867
80248.4
80640.9
81166.7
81571.4
81719.6
81704.1
81462.2
80854.3
80306.3
79886.3
79753.5
79771.7
80623.6
83403.6
93184.2
141192
185235
193326
195403
192686
190502
190139
191762
78962.5
78921.9
79014.4
79308.9
79694.4
80126.7
80347.9
80604.3
80898.2
81177.1
81577.6
81828.6
81859.1
81689.2
81141.9
80547.8
80290.8
80154.5
80011.6
80978.8
85920.3
109599
172934
188554
192419
191810
188054
186930
187545
188864
79053
79003.5
79253.4
79762.6
80199
80523.9
80667.4
80805.7
80938.8
81159.7
81519.3
81847.7
81926.1
81909
81519.4
80960.4
80573.8
80315
80314.9
82094.3
92857.5
151163
182038
188562
189547
187077
184554
183909
185064
185750
79168.8
79169.5
79566.4
80185.7
80568.2
80747.1
80826.7
80888.4
80915.5
81096.5
81465.8
81831.6
82029
82097.7
81935.1
81303.7
80690.3
80383.1
80745.9
85410
115512
171212
183415
186407
186102
182829
181352
181085
182292
182740
79432.3
79523.8
79983.3
80564.4
80814.2
80911
80932.4
80925.6
80887.8
81035.8
81413.8
81832.4
82161
82276
82145.6
81421.3
80693.8
80495.2
82142.7
93837.6
154684
177297
182727
183286
181819
179525
178449
178342
179150
179490
79766.3
80118.7
80493.4
81011.6
81156.7
81149.3
81076
80934.8
80878.4
80977.5
81445.9
81884.6
82222.7
82344.1
82209.2
81404.3
80670.4
81025.6
85684.2
119719
168330
177873
180106
180136
177784
176233
175477
175383
175953
176097
80416.9
80910.3
81144.8
81598.4
81715.3
81583
81274.7
81129.4
81096.8
81109.3
81462.1
81898.3
82228.7
82343.2
82187.9
81261.6
80855.2
82333.1
94297.4
152733
172548
176767
177130
176485
174194
172862
172302
172307
172654
172681
81407.9
81869.9
82011.2
82340.3
82411.5
82251.7
81851.4
81491.4
81325
81265.5
81444.6
81713.6
81949.9
82106.8
81934.8
81109.9
81289.1
85695.2
118524
164119
172692
174241
174239
172536
170672
169568
169107
169154
169386
169348
82544.4
82976.4
83044.6
83085
83051.5
83052.7
82497.7
81833.1
81425.6
81267.4
81384.5
81537.7
81722.7
81803.4
81337.9
80902
82533
93960.9
150348
171104
172637
171966
170938
168571
167240
166316
165948
166005
166211
166091
83794
84166.2
84005.2
83757.6
83534.9
83422.1
82787.9
82032.6
81462.7
81245.5
81203.3
81187.8
81118.6
80865.8
80524.8
81156.1
86024.2
122051
170710
176576
172892
169912
167164
164991
163755
163016
162741
162936
163103
162947
84868.8
85090.6
84714.8
84310.4
83888.9
83568.1
82891.7
82124.4
81486.1
81042.8
80541.5
80266.4
80097.6
80176.5
80523.7
82666.2
98650.5
166172
182582
178387
172111
167150
163412
161644
160323
159695
159510
159902
160086
159922
86000
85903.9
85327.8
84629.4
84061.2
83612.1
82916.9
82149.1
81274.7
80405
80132.4
80027.4
80025.2
80336.9
81350.6
88850.8
144216
184867
188209
178549
170580
163749
160274
158108
156990
156497
156379
156849
157019
156938
86215.9
86195.8
85088.2
84428.3
83783.5
83523.1
82749.8
81256.2
80555.4
80364.2
80424
80639.8
81224.1
82272.4
86875.6
125800
183587
192948
190152
178378
167524
160827
156924
154741
153685
153254
153162
153703
153878
153881
87511.1
86612.9
85747.8
84609.4
84154.4
83549.6
81841.9
80837
80607.6
81413.2
83100.7
85452.5
88447.5
93108.3
123471
179418
194417
195456
190256
176221
163717
157605
153383
151278
150290
149910
149839
150480
150697
150741
86308.2
85946.3
84585.1
84343.1
83416.2
82387.3
81569.5
82050.1
84779.3
89817.5
97851.5
109957
122079
139536
173925
190910
195601
195581
188549
170762
160130
153456
149653
147763
146902
146616
146580
147241
147456
147538
87688.7
86148.7
86034.3
84502.7
83093.7
82292.9
83611.9
89432.5
104025
125111
142291
147641
149989
160926
181945
190151
190912
190880
181726
164663
155738
149068
145746
144174
143534
143370
143477
144041
144225
144313
84141.2
84696.6
82894.1
82847.1
82942.2
84466.5
92272.9
121747
150983
158002
156778
153920
153155
163428
173532
177581
179153
179489
172372
158130
149937
144558
141914
140668
140175
140054
140601
141039
141153
141244
90548
84212.1
84694.4
84022.7
85556.8
92570.4
131227
157718
162787
162497
156969
151167
148819
152752
160104
162219
163343
163716
159506
149987
143718
139892
138045
137234
136953
136896
137713
138176
138253
138384
67255.7
79467.5
81767.6
83237
88883.4
124475
155741
162815
163644
162077
151614
141155
138684
139426
141887
143110
145265
146121
144665
139937
136547
134833
134007
133699
133613
133943
134893
135445
135528
135666
215531
216306
208551
161896
112479
99713.4
94500.3
91073.6
89060.7
86898.6
84458.9
82209.1
80583.7
79820
79605.5
79226.6
78833
78491.3
78302.3
78303.8
78467.2
78266.4
77988.9
77362.2
77081.8
76512.8
76370
76355.3
75962
75370.6
211300
210792
204511
190627
140779
104525
94914.3
90831.7
87365.6
85350.5
82701.6
80919.2
80147.5
79905.2
79828.4
79828.9
79656.9
79416.6
79341.1
79371.4
79241.8
78858
78435.7
77777.5
77489.2
77183.9
77221.4
77204.6
76828.3
75833
202690
206271
202952
198303
182627
117151
97012.9
90800.2
86700.5
83793
81492.4
80094.9
79694.4
79836.7
79961.8
80211.2
80270.8
80267.7
80220.6
80072.2
79791.7
79355.4
78868.6
78191.7
77881.4
77595.4
77736.6
77988.6
77913.2
76521.2
199004
202013
201926
199724
194702
160000
103922
91295.7
86527.1
83052.1
80867.4
79670.5
79454.9
79701.8
80058.7
80424.9
80745
80985.6
80952.2
80716.8
80341.2
79847.8
79397
78754
78395.5
78034.2
78092.7
78412.7
78666.9
77235.1
195897
197244
199239
199609
197166
185856
126954
94520.7
86642.3
82836.6
80624.9
79519.5
79383.8
79669.5
80139.4
80721.5
81225.1
81603.2
81551
81369.6
80820.6
80297.8
79890.3
79296.5
78950.1
78551.9
78475.9
78773
79030.3
78122.1
193986
193752
195142
197311
197238
192707
171378
104857
88185.3
82856.1
80580.2
79507
79467.6
79846.2
80448.8
81051
81654.4
82050.9
82034.8
81868.5
81316.8
80672.1
80294.8
79807
79501.9
79113.5
78879.1
79016.4
79169.1
78783.3
191911
190313
190696
192886
195565
193483
185388
141424
93301.7
83508.5
80783.8
79973
80034.1
80218
80739.1
81402.7
82089.4
82334.4
82278.5
81981.6
81545.2
81082.7
80707.2
80313.3
80042.5
79644.3
79299.8
79198.4
79222.6
79134.9
188914
187600
187011
188152
191919
192537
188671
173105
109784
86069
81152.7
80302.8
80514.2
80700.7
81051.2
81805.6
82389.4
82434.7
82317.9
81985
81595
81347.7
81124.8
80861.8
80604.4
80161.6
79748.9
79393.3
79260.7
79303.2
185695
185018
183887
184542
187104
189619
188670
182215
151473
93093.8
82359.6
80728
80759.9
81125.1
81609
82232.5
82565
82508.2
82319
81916.9
81580.4
81409.7
81327.1
81230.9
81064.9
80677.8
80205.3
79632.3
79343.5
79404.2
182611
182169
180977
181260
182779
186143
186508
183591
171575
115972
85779.4
81298.7
80980.3
81364.2
82143.8
82708.9
82764.8
82641.1
82317.2
81870.6
81530.4
81416.9
81410.5
81355.3
81281.6
81068.8
80630.6
79946.1
79529.2
79525.4
179308
178977
178188
178311
179434
181829
183465
182955
177702
155226
94355.7
82693.1
81150.7
81547.4
82382.8
82947.3
82908.2
82745.2
82333.5
81805.3
81473.1
81394.6
81417.4
81411
81375.4
81260.8
81004.4
80367.9
79918.5
79839.5
175870
175750
175223
175329
176141
177820
180404
180420
178305
168919
120305
86416.5
81836
81644.9
82420
83024.6
82961.4
82787.4
82367.2
81832.9
81451.7
81392.7
81393.4
81482.1
81526.8
81509.2
81375
80893.3
80546.2
80239
172452
172451
172152
172168
172810
174311
176832
177650
177345
173403
153842
95245
83281.4
81734
82276.1
82989.2
82938.9
82780.6
82368.6
81843.8
81488.8
81505.6
81481.7
81580
81861.3
81964.7
81879.6
81505.2
81335.9
80932.8
169111
169196
168986
169004
169554
170851
172948
175014
175142
173959
165731
119983
86745.4
82089.4
81775
82455.9
82475.5
82372.8
82077.3
81743.5
81497.6
81559.4
81737.8
82024.4
82402.6
82586.1
82546.7
82310
82262.6
81905.7
165877
166040
165856
165869
166344
167487
169082
171861
173360
174274
173253
153336
95303.3
83267.3
81305.8
81542.3
82033.3
81998.2
81804.6
81604.5
81480.9
81537.2
81879
82645.1
83115.2
83203
83266.3
83277.3
83318
82963
162775
162961
162807
162777
163132
164049
165546
168141
171495
174428
178457
172591
123972
86673.3
81448.7
80699.9
80855.2
81128.9
81248.4
81320.1
81363.3
81535.4
82014.4
82922.8
83648
83743.3
83938.5
84209.7
84444
84115.6
159830
160031
159880
159641
159891
160658
162284
164368
168709
173851
180233
183948
167788
99519
82950.3
80695
80410.8
80325.5
80404
80602
81015
81517.7
82053.7
83032
83897.9
84256.6
84575.1
84968.2
85314.9
85125.9
156940
157104
156947
156594
156773
157412
158798
161204
165051
172405
180364
189487
186224
146113
89691.3
81752.9
80695
80385.9
80384.3
80461.5
80687.4
81337.2
82058.3
83077
84004.8
84510.4
84964.5
85582
86105
86219.5
153965
154040
153900
153505
153622
154140
155385
157918
161995
169113
180176
191387
194054
185017
129139
88095.5
83244.3
82064.5
81448.7
81144.1
81044.4
81198.2
81747.3
82750.6
84036.6
84339.7
84930.4
85456
86398.9
86408.6
150859
150857
150714
150265
150365
150820
151930
154228
158835
165049
177882
191494
196371
195390
181113
127972
97014.9
90702.1
87388.8
84591.9
82735.7
82002.8
81844.6
82231.8
83491.7
84699.2
85205.6
86259.8
86952.6
87714.8
147718
147669
147516
146986
147035
147379
148365
150496
154728
161703
171861
189653
196394
196389
191493
174800
144068
128252
116595
102960
92291.6
86386.3
83426.3
82518.7
82842.7
83837.9
84731
84982.5
86345.1
86520.8
144526
144456
144311
143801
143798
144001
144743
146459
149976
157159
165719
182724
191134
190871
190049
181767
160484
151161
149728
146952
132833
109315
91394.1
85003.2
83599.2
83967.3
84916.5
86446.8
86676.8
88170
141446
141377
141290
140890
140474
140616
141177
142556
145425
151027
158848
172963
179080
178695
177153
172417
161819
153340
154350
157773
160052
154857
129845
95284.2
85616.8
83526.8
83186
83148.2
85119.4
84557.7
138547
138460
138404
137995
137170
137245
137578
138488
140510
144647
150165
159629
162861
162426
161186
158584
150347
147408
149698
157142
163370
164230
160248
140097
95673.3
85669.3
83819
84754.4
84609.7
91139.8
135817
135711
135632
135112
134133
133903
134004
134326
135203
137080
139911
144128
144972
143954
141601
140233
137162
137289
140579
151503
161871
164655
164029
158407
133420
90758.4
83544.3
82108.8
79708.1
67593.3
70637
70637
70637
70637
70637
70637
70637
70637
70637
70637
70637
70637
70637
70637
70637
70640.8
70984.2
82155.8
299712
903192
1.20446e+06
1.26169e+06
1.26802e+06
1.277e+06
1.33652e+06
1.43989e+06
1.53396e+06
1.63324e+06
1.68243e+06
1.70275e+06
1.70623e+06
1.70111e+06
1.6994e+06
1.67447e+06
1.63817e+06
1.61041e+06
1.57927e+06
1.56702e+06
1.55346e+06
1.53812e+06
1.52336e+06
1.5058e+06
1.48176e+06
1.45651e+06
1.4297e+06
1.40407e+06
1.37157e+06
1.33164e+06
1.28077e+06
1.21991e+06
1.1452e+06
1.0585e+06
970919
886663
807940
736515
673695
619832
572821
532162
496865
465588
437233
411148
387217
365082
344509
325498
308239
292651
278638
266002
254506
243975
234305
225274
216800
208914
201601
194709
188188
182095
176536
171561
167163
163293
159858
156776
153984
151426
149024
146702
144417
142149
139908
137723
135635
133678
131864
130178
128594
127091
125674
124370
123206
122193
121314
120550
119922
119384
118985
118820
118821
118833
118894
119073
119524
120505
121819
122960
124468
126265
128374
130703
133197
70637
70637
70636.9
70636.9
70636.9
70636.9
70636.9
70636.9
70636.9
70636.9
70636.9
70636.9
70636.9
70636.9
70637
70640
70857.1
77965.2
251567
837348
1.18305e+06
1.26694e+06
1.29507e+06
1.36403e+06
1.41821e+06
1.46911e+06
1.55471e+06
1.6348e+06
1.67121e+06
1.68508e+06
1.68898e+06
1.68912e+06
1.68036e+06
1.65044e+06
1.60537e+06
1.56471e+06
1.52741e+06
1.49654e+06
1.46734e+06
1.43815e+06
1.41646e+06
1.39829e+06
1.37879e+06
1.35735e+06
1.33382e+06
1.30834e+06
1.28086e+06
1.24881e+06
1.20771e+06
1.15292e+06
1.0864e+06
1.01574e+06
946003
874512
804402
737738
676306
620854
570373
526579
489003
456604
427903
402207
378980
357652
337901
319626
303065
288177
274916
263067
252313
242353
233045
224252
215937
208165
200929
194125
187723
181720
176199
171198
166745
162798
159242
155938
152871
150107
147619
145251
142925
140632
138386
136212
134149
132223
130447
128805
127269
125817
124452
123190
122058
121069
120206
119457
118841
118314
117955
117859
117862
117882
117969
118226
118813
120062
121301
122525
124111
125983
128133
130497
133050
70637
70637
70637
70637
70636.9
70636.9
70636.9
70636.9
70636.9
70636.9
70636.9
70636.9
70636.9
70636.9
70637
70638.1
70701.4
73368.5
162158
677362
1.13932e+06
1.24466e+06
1.25244e+06
1.25435e+06
1.254e+06
1.30337e+06
1.46746e+06
1.57706e+06
1.64813e+06
1.67991e+06
1.69341e+06
1.69848e+06
1.69937e+06
1.69332e+06
1.66004e+06
1.61517e+06
1.57308e+06
1.52175e+06
1.46992e+06
1.42591e+06
1.39173e+06
1.35987e+06
1.34567e+06
1.3372e+06
1.33125e+06
1.32831e+06
1.32488e+06
1.31746e+06
1.29225e+06
1.25468e+06
1.20018e+06
1.12523e+06
1.03604e+06
945420
850639
761327
690040
628447
575926
529522
488902
454535
425077
399601
376789
355971
336833
319207
303223
288827
275908
264022
252963
242785
233416
224659
216392
208643
201411
194647
188266
182260
176726
171692
167187
163163
159568
156347
153341
150425
147651
145051
142558
140164
137851
135636
133546
131606
129824
128182
126656
125217
123865
122611
121474
120463
119574
118801
118145
117609
117286
117179
117182
117206
117298
117570
118225
119593
120817
122166
123850
125798
128009
130412
132969
70637
70637
70637
70637
70636.9
70636.9
70636.9
70636.9
70636.9
70636.9
70636.9
70636.9
70636.9
70636.9
70636.9
70637.3
70651.7
71443.1
97750.5
424017
1.01068e+06
1.23335e+06
1.31465e+06
1.35424e+06
1.39642e+06
1.49613e+06
1.55891e+06
1.61214e+06
1.66646e+06
1.68564e+06
1.69245e+06
1.69488e+06
1.69564e+06
1.69421e+06
1.68336e+06
1.66244e+06
1.62186e+06
1.56422e+06
1.50383e+06
1.44896e+06
1.40528e+06
1.36759e+06
1.3504e+06
1.34346e+06
1.34061e+06
1.33944e+06
1.33302e+06
1.31012e+06
1.26186e+06
1.19965e+06
1.13619e+06
1.05163e+06
967930
889399
822556
751385
682797
626503
575534
527597
484528
447320
417258
392297
371108
351564
333545
317282
302512
288975
276545
264781
253770
243528
234133
225345
217132
209452
202357
195786
189437
183364
177672
172539
167975
163895
160180
156785
153633
150535
147365
144281
141349
138661
136171
133836
131676
129712
127939
126333
124863
123493
122207
121005
119886
118855
117919
117089
116375
115828
115519
115353
115333
115347
115444
115802
116651
118136
119323
120937
122819
124913
127215
129676
132333
70637
70637
70637
70637
70636.9
70636.9
70636.9
70636.9
70636.9
70636.9
70636.9
70636.9
70636.9
70636.9
70636.9
70637
70639.3
70782.9
76100.7
225261
797677
1.43185e+06
1.657e+06
1.69899e+06
1.69342e+06
1.71714e+06
1.72049e+06
1.72031e+06
1.71004e+06
1.70534e+06
1.6868e+06
1.67342e+06
1.66352e+06
1.65006e+06
1.63444e+06
1.62391e+06
1.60241e+06
1.55864e+06
1.50962e+06
1.46407e+06
1.41791e+06
1.37808e+06
1.35107e+06
1.33363e+06
1.31926e+06
1.30012e+06
1.28211e+06
1.23441e+06
1.18992e+06
1.13211e+06
1.06241e+06
996294
919039
829322
754080
690619
639745
599392
557492
513330
473698
442696
416100
392463
372010
352678
334750
318551
303782
290185
278079
266644
255890
245671
236085
227191
218875
211142
203967
197315
190917
184782
179065
173834
169128
164946
161157
157669
154298
150877
147584
144457
141545
138617
135681
132858
130191
127822
125694
123776
122058
120527
119168
117956
116853
115838
114905
114065
113357
112837
112521
112363
112362
112396
112591
113149
114323
115672
117129
118964
121062
123379
125898
128569
131382
70637
70637
70637
70637
70636.9
70636.9
70636.9
70636.9
70636.9
70636.9
70636.9
70636.9
70636.9
70636.9
70636.9
70637
70637.4
70652.6
71214.9
84786.7
301784
882771
1.35628e+06
1.62758e+06
1.73867e+06
1.76556e+06
1.76288e+06
1.75924e+06
1.74529e+06
1.70257e+06
1.69377e+06
1.67558e+06
1.6443e+06
1.60423e+06
1.56781e+06
1.53477e+06
1.51136e+06
1.49261e+06
1.46427e+06
1.42976e+06
1.38792e+06
1.34651e+06
1.31259e+06
1.29515e+06
1.28267e+06
1.27313e+06
1.26006e+06
1.2367e+06
1.18767e+06
1.11527e+06
1.01492e+06
914129
827560
780307
715741
642828
584950
539973
503925
470683
447538
428470
408784
389711
372528
356168
338537
322603
307987
294104
282267
270966
260129
249955
240506
231194
222764
214831
207436
200631
194133
187916
182058
176609
171545
167080
163143
159449
155609
151755
148188
145066
141991
138838
135849
133050
130442
127765