/*--------------------------------*- C++ -*----------------------------------*\
| =========                 |                                                 |
| \\      /  F ield         | OpenFOAM: The Open Source CFD Toolbox           |
|  \\    /   O peration     | Version:  2112                                  |
|   \\  /    A nd           | Website:  www.openfoam.com                      |
|    \\/     M anipulation  |                                                 |
\*---------------------------------------------------------------------------*/
FoamFile
{
    version     2.0;
    format      ascii;
    arch        "LSB;label=32;scalar=64";
    class       volScalarField;
    location    "0.00409";
    object      nut;
}
// * * * * * * * * * * * * * * * * * * * * * * * * * * * * * * * * * * * * * //

dimensions      [0 2 -1 0 0 0 0];

internalField   nonuniform List<scalar> 
13875
(
0.0511672
0.0366264
0.0343738
0.0343269
0.0342629
0.0343145
0.0343073
0.0343204
0.0343131
0.0342807
0.0342603
0.0342917
0.03433
0.034345
0.0343348
0.0342842
0.034249
0.0342847
0.0343146
0.0343434
0.0342801
0.0343314
0.0343851
0.0365715
0.0514225
0.0532621
0.0341211
0.0322302
0.0321028
0.032021
0.032056
0.0320442
0.0320492
0.0320438
0.0320285
0.031997
0.0320398
0.0320612
0.0320777
0.0320655
0.0320364
0.0319794
0.0320309
0.0320546
0.0320848
0.0320362
0.0320971
0.03223
0.0340503
0.053638
0.0564576
0.0335632
0.0318102
0.0315858
0.0315125
0.0315475
0.0315279
0.0315129
0.0315092
0.0314568
0.0314106
0.0314626
0.0315375
0.0315629
0.0315411
0.0314631
0.0313911
0.031464
0.0315357
0.0315799
0.0315325
0.0315721
0.0317944
0.0334897
0.0566
0.059072
0.0332343
0.0314963
0.0312687
0.031206
0.031238
0.0312151
0.0311959
0.031188
0.0311226
0.0310821
0.0311235
0.0312199
0.031247
0.0312249
0.0311244
0.0310656
0.0311317
0.0312196
0.0312667
0.0312246
0.0312543
0.0314839
0.0331671
0.0591505
0.0611281
0.0330054
0.0312526
0.0309941
0.0309294
0.0309568
0.0309317
0.0309096
0.0308963
0.0308331
0.0307973
0.0308334
0.0309332
0.030962
0.0309388
0.030835
0.0307809
0.0308413
0.0309334
0.0309846
0.0309474
0.0309813
0.0312291
0.0329202
0.0612671
0.0628215
0.0328497
0.031095
0.0307619
0.0306969
0.0307131
0.0306806
0.0306537
0.0306329
0.0305705
0.0305406
0.0305714
0.0306757
0.0307063
0.0306819
0.0305725
0.0305253
0.03058
0.0306807
0.0307423
0.0307157
0.0307537
0.0310571
0.0328255
0.0629785
0.0648307
0.0330745
0.0311094
0.0306236
0.0305155
0.0305094
0.0304631
0.0304292
0.0303998
0.0303366
0.0303142
0.0303399
0.0304496
0.0304817
0.0304537
0.0303385
0.0303022
0.0303537
0.0304649
0.0305377
0.0305367
0.030627
0.0311134
0.0330743
0.0648699
0.0671016
0.0339406
0.031432
0.0306449
0.0304403
0.0303774
0.0303008
0.0302502
0.0302071
0.0301415
0.0301259
0.0301427
0.0302605
0.0302974
0.0302662
0.0301412
0.0301184
0.0301686
0.0302972
0.0304015
0.0304538
0.0306342
0.0313915
0.033895
0.0673578
0.0736559
0.0362988
0.0320517
0.0308509
0.0304524
0.0303239
0.0302094
0.0301326
0.030069
0.0300034
0.0299955
0.0300034
0.0301298
0.030173
0.0301389
0.0300055
0.0299929
0.0300434
0.030192
0.0303417
0.0304689
0.0308134
0.0319442
0.0360109
0.0742006
0.0829072
0.0384921
0.0327505
0.0311771
0.0306368
0.0303819
0.0302219
0.0301147
0.0300334
0.0299761
0.0299709
0.0299754
0.0301046
0.0301537
0.0301197
0.0299941
0.0299783
0.0300276
0.0301777
0.0303821
0.0306373
0.0311438
0.0326455
0.038118
0.0835064
0.0907445
0.0441807
0.0347132
0.0321196
0.0310519
0.0306458
0.030419
0.0302764
0.0301829
0.0301299
0.0301195
0.0301246
0.0302511
0.0303035
0.0302762
0.0301754
0.0301507
0.0301988
0.030354
0.0306037
0.0310324
0.0320519
0.0344912
0.0433605
0.0894085
0.0949631
0.0548617
0.0407734
0.0337858
0.032334
0.0314402
0.0310074
0.0308003
0.0306773
0.0306158
0.0305974
0.0306086
0.0307212
0.0307754
0.0307608
0.0306963
0.0306768
0.0307452
0.0309388
0.0313955
0.0322328
0.0335444
0.0402155
0.0536755
0.0942446
0.0866314
0.0675814
0.053967
0.0428189
0.0354392
0.0331325
0.0324615
0.032224
0.0320696
0.0319922
0.0319714
0.0319897
0.0320856
0.0321347
0.0321396
0.0321146
0.0321276
0.0322394
0.0324819
0.0331074
0.0357986
0.0426248
0.0525508
0.0671874
0.0866243
0.0796133
0.0655076
0.0596144
0.0700794
0.0453416
0.0403856
0.0373838
0.0360183
0.0355036
0.0353232
0.0352587
0.0352747
0.0353532
0.0354134
0.035442
0.0354867
0.0356324
0.0361311
0.0375806
0.041063
0.0468938
0.0689774
0.0587722
0.0655894
0.0817627
0.0756515
0.0647389
0.0583503
0.0648304
0.0575428
0.055581
0.0531782
0.0482326
0.0473273
0.0470734
0.0469881
0.0469725
0.0470509
0.0471481
0.0472003
0.0472509
0.0474293
0.0482154
0.0534123
0.0569939
0.057481
0.064737
0.0577605
0.0644319
0.0751792
0.0682611
0.0635186
0.058752
0.065248
0.0641906
0.0688149
0.066327
0.0650632
0.0684078
0.0708217
0.0715457
0.0716627
0.0719043
0.0722148
0.0718264
0.0712012
0.06827
0.0648012
0.0651624
0.0696601
0.0645402
0.0656503
0.0581216
0.0627869
0.0676407
0.0653154
0.0638872
0.0615964
0.0672248
0.0668794
0.0728142
0.0705632
0.0672077
0.0658552
0.0661293
0.066698
0.0667566
0.067014
0.0672374
0.0670708
0.0665294
0.0661197
0.0674205
0.0686505
0.0731924
0.0679273
0.0682455
0.0610893
0.0627911
0.0651683
0.0610819
0.0650522
0.0665033
0.0667081
0.0647865
0.0720873
0.0701527
0.0669854
0.0651923
0.0642514
0.0643726
0.0642765
0.0645546
0.0647282
0.0646543
0.0644788
0.0654502
0.0672042
0.0682571
0.0708068
0.065529
0.0683392
0.0671918
0.064545
0.0606868
0.0543939
0.0664566
0.0690174
0.0665382
0.0630656
0.0666518
0.0677514
0.0672322
0.0659147
0.0639484
0.0627308
0.0620456
0.0621342
0.0623966
0.0628133
0.0636843
0.0656724
0.066917
0.0663031
0.0660369
0.0635777
0.0676503
0.0697395
0.0671368
0.0550532
0.0515641
0.0702738
0.0688526
0.065017
0.0614373
0.0630042
0.0652118
0.0664643
0.0661121
0.0637094
0.0613698
0.0600137
0.0598741
0.0603617
0.061454
0.0634203
0.0657452
0.0659382
0.0642441
0.0629255
0.0623419
0.0661327
0.0692766
0.0703642
0.0509556
0.0622788
0.0678974
0.065171
0.0621807
0.0593093
0.0604354
0.0628675
0.0649145
0.0651886
0.0627183
0.0597562
0.0578775
0.057572
0.0583007
0.059979
0.0625817
0.064803
0.0643089
0.0622172
0.0607585
0.0604669
0.0634064
0.0658045
0.0677685
0.0608747
0.0816926
0.0737289
0.0627707
0.0597706
0.0573574
0.0584766
0.0607086
0.0630551
0.0636993
0.0612219
0.0579071
0.0557001
0.055235
0.0561179
0.0581511
0.061115
0.0632678
0.0623868
0.0601888
0.0590123
0.0585753
0.060965
0.0634514
0.0751687
0.0821185
0.0954479
0.0793796
0.061142
0.0573133
0.0555134
0.0565858
0.0586062
0.0611109
0.0619016
0.0594205
0.0559213
0.0535211
0.0529335
0.0538466
0.056059
0.0592547
0.0614414
0.0604072
0.0580021
0.0570534
0.0566508
0.058345
0.0615959
0.0809378
0.0970043
0.10522
0.0810345
0.0591644
0.0552522
0.0537449
0.0545294
0.0565643
0.0591944
0.0599562
0.057297
0.0537291
0.0513278
0.0507339
0.051684
0.0539503
0.0572396
0.0595537
0.0584932
0.0558971
0.0549031
0.0548461
0.0563761
0.0598756
0.0815557
0.105332
0.111219
0.0816207
0.0578349
0.0537687
0.0521864
0.0527228
0.0547584
0.0572919
0.0579317
0.0552281
0.0516423
0.0492672
0.0486932
0.0496298
0.051904
0.0552729
0.0576185
0.0566159
0.0540661
0.052941
0.0531298
0.054834
0.0586639
0.0825795
0.111725
0.117889
0.0832089
0.0570632
0.0527545
0.0508867
0.0512489
0.0531602
0.0554257
0.0558707
0.0531884
0.0496936
0.0473725
0.0468029
0.0477081
0.0499098
0.0531951
0.0555262
0.0547443
0.0524537
0.0512877
0.051566
0.053627
0.0577532
0.0832246
0.119497
0.124923
0.0833496
0.0565515
0.0518697
0.0498594
0.0500123
0.0516884
0.0535719
0.0537365
0.0511146
0.0477858
0.0456121
0.045083
0.0459656
0.0481032
0.0513006
0.0536046
0.0530449
0.0510204
0.0499466
0.0503869
0.0526975
0.0574048
0.0843958
0.125906
0.130873
0.0835445
0.0563934
0.051098
0.0491468
0.0490519
0.0503717
0.0518571
0.0517633
0.0492168
0.0460823
0.0440326
0.0435145
0.0443643
0.0463897
0.0493945
0.0516488
0.0513947
0.0497464
0.048888
0.0495129
0.0517929
0.0571704
0.085007
0.134281
0.138658
0.084177
0.0562186
0.0504318
0.0485307
0.0482802
0.0491974
0.050286
0.0499478
0.0474822
0.0445274
0.0425925
0.0420859
0.0428868
0.0447631
0.0475678
0.0497795
0.049847
0.0485935
0.0480133
0.0487332
0.0509883
0.056927
0.0853233
0.141691
0.145891
0.0848846
0.0561336
0.0497753
0.0478966
0.0475889
0.0481188
0.0487417
0.0480961
0.0457272
0.0430353
0.0412663
0.0407889
0.0415819
0.0433609
0.0459713
0.0481179
0.0484743
0.0476162
0.0473089
0.0480367
0.0503369
0.0570292
0.0869982
0.146697
0.149116
0.0856881
0.0564219
0.04936
0.0473088
0.0468971
0.047141
0.0474091
0.0465281
0.0442319
0.0417234
0.0400683
0.0396072
0.0403677
0.0420039
0.0444245
0.0465298
0.0471851
0.0467075
0.0466073
0.0473837
0.0498467
0.05722
0.087643
0.151543
0.152654
0.0870854
0.0569249
0.0493163
0.0467485
0.0462241
0.0462571
0.0461893
0.0451076
0.0428743
0.0405523
0.0389926
0.038537
0.0392681
0.0407863
0.043008
0.0450609
0.0459828
0.0458601
0.0459364
0.0467778
0.0497144
0.0577039
0.0880973
0.154612
0.156486
0.0872882
0.0577159
0.049437
0.0462969
0.0455301
0.0453729
0.0450129
0.0437687
0.0416011
0.0394395
0.0379952
0.0375606
0.0382774
0.0397035
0.0417973
0.0438181
0.0448987
0.0450557
0.045263
0.046294
0.0498285
0.0585981
0.0891257
0.157922
0.158978
0.0878817
0.0588115
0.0499267
0.0460066
0.0449173
0.0445321
0.0439661
0.0425897
0.0404859
0.0384787
0.0371098
0.0366782
0.0373667
0.0387052
0.0406348
0.042605
0.0438614
0.0442704
0.0446875
0.0460047
0.0502666
0.0597587
0.0894056
0.161361
0.161492
0.0892011
0.0593366
0.0506119
0.0459786
0.0443545
0.0437165
0.0429979
0.0415553
0.0395201
0.0376004
0.0363024
0.0358758
0.0365351
0.0377949
0.0396334
0.0415413
0.0428936
0.0434879
0.0441548
0.0460224
0.0510241
0.0605299
0.0898674
0.163719
0.164336
0.0891754
0.0592278
0.051339
0.0462021
0.043922
0.0429654
0.0420539
0.0405392
0.0385746
0.036791
0.035567
0.0351525
0.0358029
0.0370117
0.0387337
0.0405913
0.0420227
0.0427991
0.0437773
0.0462982
0.0520425
0.0607763
0.090747
0.166177
0.166017
0.0896368
0.0592183
0.0526153
0.0466637
0.0436896
0.0423098
0.0412035
0.0396586
0.0377767
0.0360677
0.0348936
0.0344879
0.0351183
0.0362647
0.0379116
0.0396867
0.0411727
0.0421802
0.0435803
0.046795
0.0534382
0.0604326
0.0906079
0.168455
0.168031
0.0900542
0.0592182
0.0536509
0.0474956
0.0436712
0.0418379
0.0404701
0.0388535
0.0370178
0.0354114
0.0342847
0.0338864
0.0345054
0.0355914
0.0371298
0.0388681
0.0404297
0.0417041
0.0436134
0.0477962
0.0544908
0.059987
0.0907962
0.170036
0.170023
0.0899632
0.0585562
0.0537144
0.048431
0.0438428
0.0415349
0.0398076
0.0381002
0.0363168
0.0347842
0.0337101
0.0333305
0.0339405
0.0349832
0.0364702
0.0381586
0.0398026
0.0414286
0.0438549
0.0489287
0.0546856
0.0593343
0.0914749
0.171828
0.171217
0.090504
0.057802
0.0536807
0.0501033
0.0443334
0.0414375
0.0393251
0.0374626
0.0356897
0.0342287
0.0331999
0.0328222
0.0334152
0.0344092
0.0358248
0.0375136
0.0393222
0.0413342
0.0443899
0.0506609
0.0544283
0.05839
0.0917912
0.173423
0.172509
0.0916778
0.0573613
0.0533749
0.0512493
0.0451609
0.0414817
0.0390659
0.0369655
0.0351569
0.033722
0.0327213
0.0323526
0.0329213
0.0338875
0.0352733
0.0369956
0.0390332
0.0414083
0.045373
0.0518663
0.0539109
0.0576813
0.0926246
0.174259
0.173744
0.0924324
0.0567406
0.0527195
0.0513319
0.0464066
0.0416987
0.0389152
0.0365985
0.0346951
0.033255
0.0322831
0.0319218
0.03249
0.0334308
0.0348322
0.036639
0.0389239
0.0417825
0.0469706
0.0518276
0.0532709
0.0576662
0.0943197
0.175285
0.174285
0.0936092
0.0565517
0.0520208
0.0509893
0.0481778
0.0424163
0.0389092
0.0364401
0.0343472
0.0328611
0.0318807
0.0315212
0.0320823
0.0330226
0.0344598
0.0364654
0.0389007
0.0425651
0.0487553
0.0513771
0.0525614
0.0572494
0.0949947
0.176203
0.174905
0.095462
0.0570587
0.0515023
0.0504391
0.0490248
0.0438625
0.0391172
0.0363552
0.0341492
0.0325738
0.0315425
0.0311665
0.0317363
0.0327213
0.034249
0.0363837
0.0391248
0.0442375
0.0496113
0.0506644
0.0519961
0.0573232
0.0960067
0.176775
0.1758
0.0961835
0.0570268
0.0509787
0.0497289
0.0487562
0.0460363
0.0397698
0.0363741
0.0341031
0.0324356
0.0312964
0.0308865
0.0314922
0.0325679
0.0342168
0.0364703
0.0399862
0.0464522
0.049252
0.0499245
0.0515967
0.057996
0.0974861
0.177395
0.176117
0.097403
0.0577413
0.0506902
0.0490587
0.0483275
0.0473087
0.0415297
0.0366625
0.0341103
0.0324129
0.0311908
0.0307104
0.0313833
0.0325218
0.034215
0.0367952
0.0416693
0.0474466
0.0486937
0.0492959
0.0512463
0.0583657
0.0981793
0.178116
0.176399
0.0989114
0.0587572
0.0506399
0.0485624
0.047761
0.0470636
0.0439088
0.0377436
0.0342431
0.0324038
0.0311607
0.0306323
0.0313519
0.0325152
0.0343486
0.0379028
0.0441473
0.047217
0.0480727
0.0488222
0.0511186
0.0589553
0.0990485
0.178279
0.176111
0.0993642
0.0592045
0.05059
0.048142
0.0471591
0.0466613
0.0451558
0.0398902
0.0347287
0.0324521
0.0311576
0.0306198
0.0313504
0.0325959
0.0349665
0.0403583
0.0454683
0.0468456
0.0475323
0.0484865
0.051223
0.0599354
0.10024
0.17763
0.174201
0.0995087
0.0597412
0.0506329
0.0478521
0.0466707
0.0461137
0.0450011
0.0421867
0.0361481
0.0327118
0.0311904
0.0306407
0.0313758
0.0328659
0.0364948
0.0425611
0.0453135
0.0463354
0.0470785
0.0482533
0.0512618
0.0603684
0.100187
0.175747
0.168146
0.0981644
0.0602298
0.050672
0.0476461
0.0462874
0.0455674
0.0446623
0.0431023
0.0386743
0.0336318
0.0313837
0.0307691
0.0315464
0.0338279
0.039028
0.0432405
0.0449506
0.0458154
0.0467059
0.048062
0.0512388
0.0606253
0.0984432
0.169735
0.0849148
0.228988
0.304894
0.330599
0.338529
0.341854
0.345364
0.349659
0.354977
0.361116
0.367615
0.374185
0.380447
0.386405
0.392002
0.396828
0.400805
0.404639
0.408967
0.422399
0.486983
0.58751
0.607695
0.611284
0.612903
0.609861
0.595197
0.551413
0.439434
0.148296
0.0775006
0.236591
0.311128
0.334906
0.342178
0.345719
0.34976
0.354694
0.360672
0.367219
0.373922
0.380518
0.3869
0.392941
0.398362
0.402934
0.40725
0.411761
0.420426
0.465587
0.586619
0.623929
0.62739
0.625923
0.623736
0.617028
0.599441
0.552802
0.440533
0.148883
0.080359
0.248992
0.317082
0.337969
0.34464
0.348695
0.353599
0.35943
0.366076
0.373055
0.380105
0.387083
0.393765
0.399706
0.404924
0.409323
0.413717
0.419489
0.443055
0.547071
0.621559
0.629491
0.629334
0.62888
0.627282
0.620328
0.600603
0.549626
0.433539
0.149575
0.0825493
0.255931
0.319698
0.339522
0.346429
0.351416
0.35734
0.363977
0.371376
0.379009
0.386546
0.393826
0.40054
0.40637
0.411312
0.415644
0.420317
0.432209
0.497027
0.611176
0.633986
0.633221
0.632297
0.631869
0.629879
0.621373
0.598619
0.54248
0.423025
0.149992
0.082681
0.258229
0.321462
0.341226
0.348743
0.354675
0.361489
0.369088
0.377368
0.38566
0.393444
0.400824
0.407379
0.412967
0.417502
0.422148
0.429031
0.461765
0.581126
0.63624
0.638486
0.637036
0.636072
0.635128
0.631906
0.620984
0.594499
0.533141
0.410299
0.150291
0.0829923
0.261258
0.324098
0.343716
0.351887
0.358741
0.366693
0.375236
0.384189
0.39267
0.400437
0.407636
0.413852
0.418925
0.42346
0.42912
0.445257
0.52659
0.630723
0.644574
0.641327
0.639999
0.638799
0.637175
0.632166
0.618605
0.588455
0.52253
0.39692
0.150305
0.0837118
0.265244
0.327472
0.34697
0.355897
0.363841
0.372816
0.382078
0.391013
0.399294
0.406723
0.413283
0.418831
0.423411
0.428904
0.437984
0.480876
0.605672
0.649993
0.647627
0.642561
0.640626
0.638963
0.636429
0.629711
0.613656
0.580089
0.509926
0.382433
0.150052
0.0847854
0.269888
0.331475
0.35095
0.360757
0.369762
0.379248
0.388333
0.396861
0.404533
0.411323
0.416925
0.421829
0.427027
0.433581
0.456566
0.556969
0.649149
0.654455
0.646128
0.641036
0.637569
0.635483
0.631865
0.62366
0.605456
0.568961
0.495581
0.36777
0.149553
0.0859066
0.274784
0.335957
0.355516
0.366008
0.375133
0.384372
0.392935
0.400627
0.407244
0.412899
0.418033
0.422817
0.428387
0.441295
0.506047
0.632587
0.655315
0.648853
0.640585
0.635017
0.63045
0.627583
0.62321
0.613721
0.593685
0.554712
0.479151
0.352751
0.14876
0.0869245
0.279906
0.340812
0.360128
0.370213
0.37884
0.387077
0.394403
0.400741
0.406289
0.411246
0.415747
0.420418
0.428777
0.467613
0.593907
0.643907
0.64428
0.637258
0.629943
0.623458
0.618839
0.615462
0.610501
0.599922
0.578258
0.537223
0.460627
0.337342
0.147612
0.0878587
0.285417
0.345666
0.363764
0.372345
0.379342
0.385681
0.391451
0.396322
0.400653
0.404748
0.408828
0.414872
0.439406
0.540122
0.618121
0.627139
0.624486
0.619621
0.613577
0.606385
0.602572
0.599283
0.593997
0.582582
0.559583
0.517129
0.440731
0.321954
0.14622
0.0887861
0.291146
0.349529
0.365057
0.370753
0.375087
0.37902
0.382704
0.385923
0.389259
0.392909
0.397915
0.414668
0.487364
0.57725
0.594028
0.597752
0.597648
0.59579
0.591487
0.584921
0.58202
0.579311
0.574099
0.562176
0.538419
0.495369
0.420245
0.306878
0.144654
0.0898216
0.296629
0.351293
0.362339
0.36391
0.364741
0.365649
0.367509
0.370048
0.373841
0.379182
0.391228
0.441291
0.52146
0.54295
0.553388
0.560365
0.564527
0.566116
0.564133
0.559857
0.557932
0.556192
0.551373
0.539354
0.515474
0.472625
0.399667
0.292248
0.142945
0.0909687
0.300998
0.349362
0.354016
0.350491
0.347632
0.346569
0.349078
0.353539
0.360245
0.370995
0.399104
0.451278
0.474606
0.490838
0.506097
0.517862
0.525719
0.531373
0.533377
0.531737
0.531208
0.530835
0.526661
0.514911
0.491436
0.449446
0.379353
0.278254
0.141108
0.0923906
0.303007
0.342171
0.339151
0.330907
0.326607
0.325654
0.329143
0.336545
0.346725
0.356593
0.37263
0.393626
0.415451
0.437239
0.457189
0.47202
0.483714
0.494528
0.500822
0.501907
0.503125
0.50419
0.500827
0.489666
0.466962
0.426306
0.359534
0.265049
0.13916
0.093808
0.301024
0.328855
0.318835
0.30831
0.301637
0.302657
0.302726
0.298068
0.298533
0.302174
0.315842
0.337351
0.362487
0.387499
0.40939
0.426584
0.443099
0.458112
0.467725
0.471719
0.474822
0.47717
0.47466
0.464339
0.442604
0.403592
0.340488
0.252706
0.137137
0.0955457
0.294525
0.310414
0.294673
0.283165
0.279211
0.267191
0.260299
0.256858
0.25759
0.261867
0.275383
0.294742
0.319298
0.344879
0.367306
0.385942
0.40574
0.423142
0.435584
0.442469
0.447176
0.450558
0.448831
0.43942
0.418775
0.381648
0.322452
0.241229
0.135081
0.0972867
0.283032
0.287811
0.274403
0.263965
0.255712
0.252907
0.251598
0.24996
0.247764
0.24845
0.255398
0.268699
0.289143
0.312454
0.333074
0.35177
0.372711
0.391278
0.405646
0.414828
0.420887
0.42497
0.4239
0.415385
0.395851
0.360746
0.305532
0.230694
0.13303
0.0998185
0.269407
0.269134
0.262332
0.265962
0.276499
0.285626
0.285756
0.279514
0.267625
0.257814
0.254725
0.258831
0.271314
0.289399
0.306522
0.32524
0.344893
0.363647
0.37879
0.389452
0.396356
0.400863
0.400332
0.39262
0.374128
0.341086
0.2898
0.221042
0.131001
0.106158
0.25474
0.26902
0.291146
0.322944
0.349988
0.361288
0.351985
0.33253
0.307258
0.284044
0.268751
0.261068
0.263675
0.274653
0.28778
0.305073
0.322812
0.340567
0.355515
0.366765
0.373953
0.378486
0.378413
0.371318
0.353825
0.322804
0.275282
0.212157
0.128989
0.132346
0.269027
0.317883
0.375996
0.426121
0.455422
0.456069
0.431689
0.396415
0.355646
0.318167
0.290387
0.271071
0.262881
0.265533
0.275252
0.290479
0.306569
0.321745
0.335824
0.346885
0.353801
0.358069
0.358243
0.35154
0.335021
0.305937
0.261978
0.20395
0.126993
0.177102
0.32936
0.422599
0.487031
0.537187
0.558106
0.548424
0.511788
0.463593
0.408436
0.353725
0.313217
0.284812
0.265588
0.261321
0.267641
0.279997
0.294067
0.30663
0.319411
0.329721
0.335806
0.339798
0.339936
0.333352
0.317729
0.290428
0.249792
0.196426
0.125029
0.232409
0.414098
0.505019
0.557408
0.618261
0.637359
0.61778
0.567014
0.507597
0.446825
0.384879
0.333249
0.296867
0.269972
0.259959
0.262351
0.27202
0.284409
0.295175
0.30613
0.314657
0.319993
0.323811
0.323566
0.316854
0.301873
0.27624
0.238575
0.189593
0.123139
0.276631
0.518544
0.507545
0.597089
0.670524
0.677787
0.634747
0.571501
0.506822
0.453224
0.403768
0.352088
0.307115
0.274461
0.260769
0.259745
0.266141
0.276282
0.285806
0.294771
0.301714
0.30681
0.310142
0.309088
0.301979
0.287433
0.263338
0.228286
0.183341
0.121347
0.317429
0.403683
0.494825
0.643897
0.711954
0.710045
0.65115
0.571045
0.497184
0.446406
0.409753
0.366237
0.317489
0.279031
0.262748
0.259441
0.262966
0.27053
0.278881
0.285421
0.290808
0.296016
0.298205
0.296084
0.288609
0.274468
0.251834
0.219052
0.177543
0.119657
0.1483
0.439589
0.551574
0.59528
0.609904
0.612915
0.611204
0.607436
0.587142
0.486117
0.422143
0.408986
0.404792
0.40103
0.397258
0.392422
0.386784
0.380942
0.374598
0.36804
0.361553
0.355398
0.350087
0.345769
0.34226
0.338898
0.330894
0.305
0.228909
0.084921
0.148895
0.440806
0.553011
0.599535
0.617071
0.623745
0.625851
0.627131
0.623713
0.586175
0.46479
0.420385
0.411997
0.40764
0.403477
0.398892
0.393388
0.387241
0.380831
0.374219
0.36767
0.361187
0.355217
0.350252
0.346158
0.342532
0.335155
0.31115
0.236357
0.0775553
0.149602
0.433899
0.549902
0.600771
0.620442
0.627353
0.62887
0.629175
0.629296
0.621654
0.545331
0.442692
0.419721
0.414196
0.409919
0.405502
0.400209
0.394147
0.38748
0.380464
0.373514
0.366625
0.360014
0.354268
0.34923
0.345039
0.338244
0.317168
0.24887
0.0803942
0.150032
0.423481
0.542792
0.598841
0.621551
0.630027
0.63198
0.632486
0.633287
0.634389
0.611317
0.49628
0.432454
0.42086
0.416329
0.411932
0.406932
0.401003
0.394279
0.387036
0.379572
0.371957
0.364539
0.357841
0.352055
0.346936
0.339889
0.319926
0.256033
0.0826255
0.150338
0.41081
0.533503
0.594748
0.621212
0.632149
0.635389
0.636424
0.637278
0.638999
0.637001
0.58138
0.462156
0.429657
0.422853
0.418168
0.413589
0.407907
0.40132
0.394034
0.38627
0.378079
0.369739
0.361968
0.3551
0.349275
0.341677
0.32176
0.258392
0.0827423
0.150345
0.397404
0.522946
0.588783
0.618934
0.632551
0.637638
0.639356
0.640526
0.641937
0.645606
0.631792
0.527542
0.446003
0.429769
0.424005
0.419576
0.414406
0.40813
0.401054
0.39328
0.384794
0.375884
0.367245
0.359172
0.352273
0.344173
0.324477
0.261505
0.0830338
0.150103
0.382893
0.510395
0.580522
0.614112
0.630275
0.637122
0.639708
0.641468
0.643323
0.648247
0.650809
0.607589
0.482417
0.438705
0.429408
0.423863
0.419283
0.413751
0.407284
0.399846
0.391471
0.382481
0.373318
0.364285
0.356326
0.347393
0.327886
0.265582
0.0838849
0.149622
0.368254
0.496152
0.569513
0.606058
0.624413
0.632736
0.636364
0.638594
0.641874
0.646834
0.654537
0.649514
0.559539
0.457709
0.434065
0.427326
0.42204
0.417154
0.41159
0.404857
0.397169
0.388636
0.37959
0.370023
0.361084
0.351322
0.331866
0.270217
0.0848664
0.148842
0.353251
0.479808
0.555378
0.594401
0.614624
0.624211
0.628641
0.631411
0.635964
0.641206
0.648823
0.654661
0.63322
0.508148
0.441934
0.428569
0.422873
0.418057
0.41291
0.407234
0.400648
0.393045
0.384565
0.375496
0.366154
0.355806
0.336342
0.275152
0.0860383
0.147713
0.337897
0.461386
0.538011
0.579126
0.600931
0.611583
0.616609
0.619827
0.624442
0.630388
0.636971
0.643453
0.643253
0.595355
0.468845
0.428924
0.420302
0.41559
0.411072
0.406137
0.400576
0.394312
0.386993
0.379026
0.370538
0.360305
0.341127
0.280232
0.0870536
0.146341
0.322594
0.441606
0.518038
0.560539
0.583691
0.595148
0.600479
0.603563
0.607237
0.613792
0.619031
0.623475
0.625969
0.61695
0.542218
0.4402
0.414677
0.408435
0.404316
0.400218
0.395885
0.391115
0.385406
0.379301
0.372531
0.363863
0.345868
0.285693
0.0879238
0.144797
0.307605
0.421209
0.496374
0.539456
0.563354
0.575293
0.580499
0.583001
0.585572
0.591416
0.594942
0.596273
0.596088
0.591894
0.575568
0.49026
0.415288
0.397598
0.392367
0.388604
0.385187
0.38198
0.378387
0.374702
0.370673
0.365068
0.349715
0.291402
0.0889072
0.143107
0.293041
0.400691
0.473688
0.516571
0.540581
0.552567
0.557344
0.558898
0.560391
0.56374
0.56498
0.562877
0.558278
0.550673
0.539459
0.518521
0.443664
0.39209
0.379529
0.373668
0.369483
0.366612
0.364669
0.363901
0.363348
0.362107
0.351317
0.296808
0.0899235
0.141284
0.279065
0.380399
0.450532
0.492538
0.516133
0.527817
0.531917
0.532128
0.532219
0.53287
0.529963
0.523882
0.51556
0.503029
0.486744
0.469482
0.446617
0.399599
0.373171
0.360858
0.353721
0.348871
0.345827
0.346486
0.34944
0.353314
0.349107
0.301092
0.0910828
0.139342
0.265831
0.36056
0.427403
0.46803
0.4908
0.501936
0.505186
0.503902
0.502334
0.500302
0.49313
0.481849
0.469622
0.454008
0.433038
0.410223
0.38783
0.366236
0.352497
0.345817
0.33672
0.329248
0.324751
0.325763
0.329698
0.338003
0.341518
0.302981
0.0925267
0.137322
0.253448
0.341474
0.404689
0.443635
0.465362
0.475729
0.478055
0.475464
0.47205
0.467061
0.456773
0.441297
0.424348
0.406325
0.383492
0.357682
0.332473
0.310355
0.297425
0.293844
0.293379
0.298581
0.302179
0.301014
0.306803
0.317727
0.327901
0.300833
0.0939846
0.135266
0.241935
0.323408
0.382736
0.419794
0.440373
0.449825
0.451342
0.447726
0.442533
0.434835
0.421887
0.404029
0.383947
0.364714
0.341548
0.315335
0.291052
0.272084
0.259429
0.255327
0.254604
0.257962
0.264317
0.276206
0.283636
0.292632
0.309617
0.294244
0.0957277
0.133213
0.23136
0.306455
0.361801
0.396845
0.416254
0.424805
0.4257
0.421332
0.414737
0.404901
0.39014
0.371191
0.350033
0.330999
0.309857
0.286255
0.266672
0.254734
0.249132
0.248958
0.251112
0.252819
0.254037
0.255782
0.262545
0.275464
0.285807
0.283118
0.0975639
0.131185
0.221682
0.290655
0.342097
0.375076
0.39339
0.401122
0.401582
0.39676
0.389259
0.378131
0.362673
0.343647
0.323844
0.30497
0.287472
0.269641
0.258459
0.256512
0.261727
0.272531
0.284318
0.290641
0.291
0.282126
0.270038
0.263692
0.270939
0.268267
0.100412
0.129173
0.212763
0.276052
0.323745
0.354701
0.372031
0.379097
0.379177
0.374318
0.366461
0.354975
0.339775
0.321926
0.303976
0.286677
0.273375
0.263169
0.262041
0.272185
0.290568
0.315568
0.341608
0.360444
0.369948
0.360499
0.334057
0.29966
0.272783
0.257495
0.108023
0.127167
0.204471
0.262655
0.306799
0.33582
0.352222
0.358838
0.358653
0.354196
0.346523
0.335309
0.321166
0.306034
0.289707
0.274447
0.264915
0.26342
0.273443
0.295039
0.325764
0.365977
0.407946
0.442952
0.466687
0.467106
0.440387
0.391332
0.329945
0.273988
0.138994
0.125187
0.196814
0.250385
0.291197
0.318439
0.33398
0.34045
0.340231
0.336266
0.329521
0.318852
0.306215
0.293756
0.279492
0.267122
0.261274
0.267008
0.288155
0.318465
0.361436
0.418998
0.475067
0.524505
0.560871
0.568855
0.549294
0.501712
0.440765
0.342289
0.184848
0.123277
0.189859
0.239092
0.276892
0.302526
0.31741
0.323973
0.324076
0.320427
0.314786
0.305671
0.294958
0.284077
0.27157
0.262182
0.260399
0.271767
0.300336
0.338974
0.393094
0.453549
0.513012
0.573342
0.625436
0.645685
0.627772
0.567797
0.518878
0.432168
0.240768
0.121463
0.183553
0.228735
0.263866
0.287992
0.302446
0.3094
0.310363
0.307142
0.301909
0.294776
0.285965
0.275981
0.265692
0.259559
0.261428
0.276271
0.310196
0.35806
0.411418
0.460033
0.511142
0.575843
0.636923
0.681356
0.677018
0.608406
0.518376
0.530356
0.282464
0.119751
0.177763
0.219399
0.252216
0.274892
0.288987
0.296312
0.298373
0.296211
0.291058
0.285755
0.279089
0.270349
0.262792
0.259521
0.26353
0.281183
0.322209
0.373953
0.416687
0.453639
0.503868
0.576841
0.65824
0.716241
0.718962
0.654603
0.504962
0.414368
0.32404
0.0601812
0.0604989
0.0687588
0.1211
0.161241
0.181599
0.198811
0.215433
0.229939
0.241854
0.250291
0.255259
0.257807
0.258892
0.259075
0.257697
0.255309
0.251736
0.247865
0.244276
0.240683
0.237137
0.234438
0.231307
0.228587
0.225935
0.223243
0.220686
0.218208
0.21562
0.213087
0.210874
0.208826
0.206992
0.205384
0.203823
0.20223
0.200607
0.199097
0.197746
0.196648
0.195773
0.195001
0.194117
0.192762
0.190677
0.187654
0.183412
0.178177
0.172377
0.16704
0.162426
0.15843
0.154711
0.151003
0.147673
0.144567
0.141604
0.138747
0.136075
0.133658
0.131423
0.129321
0.127359
0.125579
0.123989
0.122551
0.121218
0.119937
0.118674
0.117394
0.116081
0.11476
0.113469
0.112239
0.111078
0.109988
0.108966
0.107998
0.107071
0.106185
0.105349
0.104566
0.103832
0.103131
0.10246
0.101828
0.101253
0.100744
0.100306
0.0999368
0.0996332
0.0993884
0.0992016
0.0990715
0.0989927
0.0989578
0.098959
0.0989927
0.0990597
0.0991679
0.0993289
0.0995538
0.0998444
0.100197
0.1006
0.101041
0.101518
0.102026
0.102568
0.103151
0.103776
0.104428
0.10511
0.105843
0.106664
0.10761
0.10866
0.109757
0.1109
0.112145
0.11351
0.114974
0.116529
0.118179
0.217677
0.216568
0.103007
0.0983021
0.157883
0.187375
0.204437
0.221372
0.238975
0.257695
0.277312
0.295921
0.314565
0.330244
0.337952
0.33649
0.329
0.320781
0.312946
0.305851
0.300086
0.295598
0.292735
0.291815
0.290303
0.288466
0.286626
0.285104
0.283773
0.282664
0.282568
0.2837
0.28568
0.288495
0.29254
0.297956
0.304711
0.312431
0.321389
0.331783
0.343433
0.355723
0.367452
0.377392
0.384667
0.388067
0.386129
0.378562
0.365833
0.348941
0.328341
0.306859
0.287804
0.271012
0.255722
0.242743
0.231637
0.221983
0.213615
0.20629
0.200056
0.194653
0.189784
0.185458
0.181861
0.178965
0.176573
0.17437
0.172174
0.170097
0.168122
0.166157
0.164039
0.161864
0.159796
0.15793
0.156203
0.15459
0.153018
0.151452
0.149999
0.148573
0.147229
0.14599
0.144797
0.143583
0.142358
0.141189
0.140128
0.139148
0.138216
0.137367
0.136667
0.136128
0.135714
0.135388
0.135132
0.134933
0.134778
0.134668
0.134597
0.134585
0.134646
0.134817
0.135124
0.135556
0.136069
0.136657
0.137308
0.138008
0.138827
0.139761
0.140724
0.141737
0.142907
0.144382
0.146219
0.148396
0.150641
0.153141
0.156078
0.159437
0.163203
0.167519
0.172467
0.285312
0.284699
0.159908
0.0974783
0.158752
0.190372
0.205513
0.218203
0.2312
0.245317
0.259182
0.270517
0.28119
0.289055
0.291743
0.289845
0.28845
0.287856
0.28736
0.286965
0.287593
0.289937
0.294223
0.298468
0.302003
0.304808
0.307145
0.30958
0.312463
0.31577
0.319622
0.324435
0.330476
0.337772
0.346642
0.357264
0.369573
0.383408
0.398613
0.414581
0.430737
0.44893
0.470666
0.496183
0.523218
0.543094
0.547662
0.535054
0.51192
0.48985
0.468604
0.439775
0.407699
0.377761
0.350539
0.326954
0.306326
0.288352
0.273242
0.260624
0.250236
0.241293
0.233369
0.226592
0.220967
0.216191
0.21211
0.208754
0.205873
0.202951
0.199825
0.196625
0.193522
0.190618
0.187922
0.18546
0.183166
0.180979
0.178824
0.176685
0.174666
0.172814
0.171128
0.169547
0.168001
0.16648
0.165009
0.163638
0.162413
0.161333
0.160356
0.159463
0.158662
0.157966
0.15738
0.156907
0.156532
0.156245
0.156054
0.155965
0.155986
0.156118
0.156343
0.156642
0.157033
0.157542
0.158153
0.15885
0.159632
0.16053
0.161551
0.16268
0.163903
0.16526
0.166852
0.168924
0.17173
0.174868
0.178073
0.181732
0.186067
0.191123
0.19695
0.20359
0.211113
0.309666
0.309595
0.242015
0.0885856
0.148344
0.185666