/*--------------------------------*- C++ -*----------------------------------*\
| =========                 |                                                 |
| \\      /  F ield         | OpenFOAM: The Open Source CFD Toolbox           |
|  \\    /   O peration     | Version:  2112                                  |
|   \\  /    A nd           | Website:  www.openfoam.com                      |
|    \\/     M anipulation  |                                                 |
\*---------------------------------------------------------------------------*/
FoamFile
{
    version     2.0;
    format      ascii;
    arch        "LSB;label=32;scalar=64";
    class       volScalarField;
    location    "0.00942";
    object      p;
}
// * * * * * * * * * * * * * * * * * * * * * * * * * * * * * * * * * * * * * //

dimensions      [1 -1 -2 0 0 0 0];

internalField   nonuniform List<scalar> 
13875
(
951601
984298
973573
975909
973671
974564
975094
974944
975230
975216
975128
975063
974710
974795
974831
974699
974632
975334
975175
973968
973386
975640
972331
982736
945693
733801
659575
672180
677220
669238
670292
677144
678931
679335
679519
679534
678591
670308
669177
670409
678030
679295
679306
677540
669946
669566
676905
672218
657278
730952
736890
635515
664283
653568
649186
647953
648363
648544
647204
646271
646651
649109
645444
645322
645238
648901
646253
648252
647927
647644
648541
652156
661909
632221
733616
743532
636158
665165
653726
649493
648115
647283
645523
644253
643741
643013
644486
645479
645423
645267
644549
643518
644640
646119
647793
648824
652281
662656
632827
739150
757361
639163
667716
654433
650353
648605
647389
645591
644300
643847
643079
644515
645603
645687
645389
644580
643615
644720
646240
648226
649606
652873
664940
635466
750055
759042
647818
673478
656401
652155
649699
647748
645832
644482
644137
643308
644632
645862
646216
645650
644708
643899
644984
646642
649152
651280
654743
670523
643195
751645
765051
668325
685693
661307
655801
651755
648626
646414
644979
644685
643852
644993
646417
646790
646152
645014
644527
645689
647722
651207
654917
660344
682068
665876
755748
791236
718357
711597
674632
663539
656081
650804
647867
646211
645825
644988
645791
647506
647948
647218
645828
645811
647178
649967
655319
662291
673134
707093
715364
781763
908668
827913
766438
704238
678958
664559
655461
651005
648874
648165
647314
647642
649717
650279
649429
647817
648429
650299
654581
663394
676944
700899
760261
823180
909734
1.52413e+06
1.02944e+06
833427
739113
697191
674691
662131
656360
653855
652704
651898
651780
654139
654841
653998
652373
653400
655837
661569
673907
695754
736819
829470
1.02537e+06
1.51737e+06
2.90532e+06
1.39255e+06
957111
795940
725224
690961
674451
666866
663490
661680
660757
660259
662566
663512
662975
661846
663047
666239
673640
689608
722291
789360
941146
1.35139e+06
2.86093e+06
5.6033e+06
2.34343e+06
1.28675e+06
935948
788801
727547
701162
689097
683360
680319
678881
678174
679861
681181
681300
681529
683452
688681
700690
727029
786905
925944
1.25235e+06
2.27445e+06
5.57465e+06
5.38833e+06
4.83439e+06
2.31346e+06
1.40116e+06
979026
828008
766960
741304
729149
723204
720522
719468
719866
721552
722972
725602
730872
742528
769204
834719
990046
1.38709e+06
2.1828e+06
4.87522e+06
5.34318e+06
4.83713e+06
4.64312e+06
4.71034e+06
3.99818e+06
1.64178e+06
1.13855e+06
955987
885307
852853
837466
830744
827840
826633
828567
832557
840832
858165
894358
975699
1.20181e+06
1.83508e+06
4.03261e+06
4.68849e+06
4.7175e+06
4.76333e+06
4.02642e+06
4.1252e+06
4.4961e+06
4.25922e+06
4.01607e+06
2.52453e+06
1.66462e+06
1.37622e+06
1.26304e+06
1.21573e+06
1.19679e+06
1.18905e+06
1.18621e+06
1.18829e+06
1.1961e+06
1.21621e+06
1.26538e+06
1.38442e+06
1.69449e+06
2.68921e+06
4.11504e+06
4.24482e+06
4.51087e+06
4.28541e+06
4.26725e+06
3.53016e+06
3.45823e+06
3.92488e+06
4.06022e+06
4.27519e+06
4.3442e+06
3.70116e+06
3.05797e+06
2.846e+06
2.6777e+06
2.5731e+06
2.533e+06
2.51794e+06
2.52361e+06
2.55365e+06
2.63719e+06
2.84699e+06
3.04581e+06
3.75521e+06
4.38969e+06
4.23662e+06
4.0788e+06
4.05343e+06
3.57129e+06
3.74831e+06
2.54811e+06
2.69083e+06
3.05928e+06
3.49954e+06
4.21024e+06
5.15278e+06
6.79316e+06
7.61166e+06
7.9612e+06
8.05731e+06
8.11861e+06
8.12886e+06
8.14059e+06
8.13343e+06
8.13245e+06
8.07811e+06
7.98196e+06
7.67761e+06
6.81219e+06
5.10042e+06
4.1991e+06
3.55997e+06
3.14968e+06
2.81747e+06
2.70407e+06
1.43289e+06
1.71965e+06
2.31417e+06
3.00729e+06
4.1783e+06
5.58452e+06
6.77601e+06
7.4279e+06
7.66687e+06
7.63823e+06
7.5576e+06
7.49122e+06
7.4734e+06
7.48972e+06
7.55838e+06
7.66133e+06
7.72337e+06
7.4892e+06
6.81159e+06
5.57772e+06
4.11781e+06
2.93311e+06
2.19225e+06
1.62201e+06
1.34484e+06
694876
1.02753e+06
1.70749e+06
2.61654e+06
4.08398e+06
5.14912e+06
5.83435e+06
6.34046e+06
6.50882e+06
6.48247e+06
6.44014e+06
6.45284e+06
6.47138e+06
6.46944e+06
6.45788e+06
6.51903e+06
6.5942e+06
6.4771e+06
6.05819e+06
5.40111e+06
4.11967e+06
2.67337e+06
1.72768e+06
1.04235e+06
704877
383136
617772
1.13803e+06
2.21078e+06
3.63271e+06
4.3475e+06
4.68465e+06
5.01957e+06
5.24076e+06
5.39737e+06
5.5436e+06
5.65705e+06
5.69577e+06
5.66839e+06
5.55895e+06
5.40312e+06
5.23542e+06
5.0156e+06
4.73923e+06
4.43653e+06
3.67168e+06
2.19967e+06
1.13287e+06
608115
374577
957683
981143
1.1725e+06
1.88899e+06
2.89241e+06
3.38496e+06
3.71676e+06
4.10355e+06
4.42607e+06
4.65859e+06
4.83547e+06
4.94224e+06
4.96631e+06
4.94251e+06
4.83027e+06
4.63314e+06
4.36711e+06
4.02934e+06
3.68244e+06
3.40755e+06
2.87733e+06
1.86084e+06
1.14794e+06
972051
961788
1.01748e+06
979171
1.15755e+06
1.6043e+06
2.16786e+06
2.61907e+06
3.0209e+06
3.45649e+06
3.79433e+06
4.03182e+06
4.20114e+06
4.29023e+06
4.30533e+06
4.28334e+06
4.18661e+06
3.99704e+06
3.72759e+06
3.37231e+06
2.93637e+06
2.60587e+06
2.12841e+06
1.56067e+06
1.12467e+06
948224
988254
1.12571e+06
1.01914e+06
1.13237e+06
1.34241e+06
1.69113e+06
2.08348e+06
2.52492e+06
2.95607e+06
3.26386e+06
3.48388e+06
3.62985e+06
3.7035e+06
3.71728e+06
3.69284e+06
3.60751e+06
3.44189e+06
3.19982e+06
2.89269e+06
2.42133e+06
2.05895e+06
1.6548e+06
1.30918e+06
1.10342e+06
1.00781e+06
1.13965e+06
1.31979e+06
1.15067e+06
1.13508e+06
1.18896e+06
1.43928e+06
1.77663e+06
2.13245e+06
2.53032e+06
2.80271e+06
3.00506e+06
3.12767e+06
3.19333e+06
3.20703e+06
3.18171e+06
3.106e+06
2.96238e+06
2.74464e+06
2.47321e+06
2.05918e+06
1.73613e+06
1.39445e+06
1.15214e+06
1.10957e+06
1.15718e+06
1.30707e+06
1.37692e+06
1.28024e+06
1.14315e+06
1.1305e+06
1.29373e+06
1.55619e+06
1.83712e+06
2.16756e+06
2.40177e+06
2.58233e+06
2.697e+06
2.75567e+06
2.7696e+06
2.74608e+06
2.67899e+06
2.5518e+06
2.35703e+06
2.12231e+06
1.78785e+06
1.5131e+06
1.24602e+06
1.10764e+06
1.12163e+06
1.28476e+06
1.36212e+06
1.43469e+06
1.38508e+06
1.15984e+06
1.13101e+06
1.20351e+06
1.39627e+06
1.60694e+06
1.87553e+06
2.07264e+06
2.2295e+06
2.33266e+06
2.3838e+06
2.39623e+06
2.37538e+06
2.31714e+06
2.20292e+06
2.03406e+06
1.8362e+06
1.57411e+06
1.36757e+06
1.16511e+06
1.108e+06
1.13682e+06
1.36827e+06
1.40738e+06
1.47723e+06
1.41578e+06
1.17891e+06
1.13107e+06
1.14962e+06
1.27158e+06
1.42821e+06
1.63658e+06
1.79909e+06
1.93162e+06
2.02198e+06
2.06652e+06
2.07937e+06
2.06016e+06
2.00744e+06
1.90897e+06
1.76514e+06
1.60307e+06
1.39681e+06
1.2431e+06
1.11865e+06
1.10807e+06
1.16287e+06
1.40458e+06
1.44865e+06
1.56558e+06
1.48704e+06
1.21354e+06
1.12783e+06
1.10941e+06
1.17483e+06
1.27999e+06
1.44003e+06
1.56964e+06
1.68158e+06
1.75844e+06
1.79819e+06
1.81153e+06
1.79462e+06
1.75167e+06
1.66977e+06
1.54986e+06
1.41653e+06
1.25876e+06
1.154e+06
1.08741e+06
1.1062e+06
1.19923e+06
1.47697e+06
1.53471e+06
1.67442e+06
1.60388e+06
1.2555e+06
1.11698e+06
1.08044e+06
1.09809e+06
1.16067e+06
1.28019e+06
1.38498e+06
1.47566e+06
1.53849e+06
1.57338e+06
1.58494e+06
1.56975e+06
1.52962e+06
1.46276e+06
1.36534e+06
1.26109e+06
1.14466e+06
1.08363e+06
1.06282e+06
1.09557e+06
1.22508e+06
1.52923e+06
1.58791e+06
1.73153e+06
1.71197e+06
1.30009e+06
1.10897e+06
1.04877e+06
1.04482e+06
1.06681e+06
1.15014e+06
1.22921e+06
1.30321e+06
1.35436e+06
1.38304e+06
1.39337e+06
1.37861e+06
1.34642e+06
1.2929e+06
1.21465e+06
1.13244e+06
1.04939e+06
1.02676e+06
1.03178e+06
1.08781e+06
1.27099e+06
1.6452e+06
1.67688e+06
1.73256e+06
1.72772e+06
1.33995e+06
1.10697e+06
1.01582e+06
993135
991917
1.03953e+06
1.09873e+06
1.1565e+06
1.19738e+06
1.2225e+06
1.23055e+06
1.22034e+06
1.19204e+06
1.14947e+06
1.08923e+06
1.0296e+06
979449
980731
1.0007e+06
1.08244e+06
1.30214e+06
1.68293e+06
1.71304e+06
1.73738e+06
1.72702e+06
1.41345e+06
1.10784e+06
980393
938375
929771
954845
994617
1.03787e+06
1.06869e+06
1.08663e+06
1.09312e+06
1.08459e+06
1.06354e+06
1.03043e+06
985494
943936
918834
925638
964759
1.08256e+06
1.35538e+06
1.6912e+06
1.72457e+06
1.74774e+06
1.71423e+06
1.47055e+06
1.10986e+06
953466
892402
878868
880074
905221
936260
958904
973133
977408
971684
953830
929832
897991
872059
868433
881051
935705
1.0849e+06
1.41832e+06
1.69073e+06
1.72463e+06
1.74746e+06
1.69391e+06
1.54285e+06
1.11886e+06
928884
850265
823695
818529
827886
849625
865839
875612
879087
874418
862830
846992
824770
811973
816476
838327
912289
1.0925e+06
1.52104e+06
1.6814e+06
1.72572e+06
1.74677e+06
1.66571e+06
1.54965e+06
1.14091e+06
917765
818431
778311
765269
764697
775111
786238
794319
796424
793435
783023
771585
760929
760984
771162
806169
899758
1.10988e+06
1.55793e+06
1.6678e+06
1.72497e+06
1.74282e+06
1.639e+06
1.54389e+06
1.16172e+06
918407
788037
733891
715266
709569
713301
719141
723612
725089
722314
715733
711589
707083
711077
728425
779204
900723
1.14555e+06
1.55782e+06
1.64181e+06
1.72327e+06
1.73391e+06
1.61687e+06
1.53655e+06
1.20695e+06
924952
768535
700410
670820
660883
658103
660392
664303
664900
663392
657812
656130
659279
669181
696264
759194
904463
1.19142e+06
1.54251e+06
1.61699e+06
1.71629e+06
1.71478e+06
1.58535e+06
1.52281e+06
1.29694e+06
942717
753891
668856
632109
617085
612333
610881
612097
612062
611404
609031
610868
615340
627875
662988
743667
916934
1.28363e+06
1.51508e+06
1.58569e+06
1.69925e+06
1.67454e+06
1.56457e+06
1.48548e+06
1.34096e+06
961812
754326
647971
599520
579078
569904
567687
568187
567387
568331
565458
567568
577284
596911
641853
744379
945742
1.33021e+06
1.46279e+06
1.55248e+06
1.66401e+06
1.61466e+06
1.53878e+06
1.4216e+06
1.33957e+06
1.00351e+06
760142
628822
570545
545270
534710
530088
528883
528168
528734
529248
533898
543830
566769
622889
747734
982573
1.32826e+06
1.39592e+06
1.5206e+06
1.61648e+06
1.56069e+06
1.50552e+06
1.36426e+06
1.3351e+06
1.08692e+06
775469
628843
551685
518254
502149
496968
496369
494147
496034
495854
500152
515677
547595
622923
758487
1.05112e+06
1.32267e+06
1.3429e+06
1.49259e+06
1.5639e+06
1.52243e+06
1.47125e+06
1.31233e+06
1.31632e+06
1.18049e+06
794113
630885
538643
495084
476719
468696
465653
464082
465273
468086
475910
492754
532734
626934
785151
1.19316e+06
1.31026e+06
1.29959e+06
1.45209e+06
1.50194e+06
1.47923e+06
1.441e+06
1.27902e+06
1.27817e+06
1.17957e+06
834311
640145
538832
480090
452802
443291
440823
437696
440381
442358
451302
477488
530436
633205
821190
1.19116e+06
1.28099e+06
1.26885e+06
1.41969e+06
1.4629e+06
1.43215e+06
1.39793e+06
1.25242e+06
1.21739e+06
1.17188e+06
915140
660755
541282
471199
436783
422528
416851
414313
416432
421894
435059
466823
531797
649443
892888
1.18099e+06
1.22266e+06
1.24528e+06
1.38723e+06
1.41822e+06
1.39906e+06
1.35853e+06
1.23104e+06
1.16198e+06
1.14631e+06
1.02954e+06
692771
545702
471421
424647
404583
397987
393931
397770
402378
420348
467114
539225
686563
1.04107e+06
1.15835e+06
1.16805e+06
1.22893e+06
1.34638e+06
1.37759e+06
1.35953e+06
1.32226e+06
1.2136e+06
1.11854e+06
1.0949e+06
1.0267e+06
761252
560915
474169
421763
393506
381034
376827
380505
391855
415854
468619
553173
751647
1.03795e+06
1.10868e+06
1.1209e+06
1.21067e+06
1.30939e+06
1.34853e+06
1.31336e+06
1.27603e+06
1.19491e+06
1.08366e+06
1.04256e+06
1.01659e+06
901037
593239
481541
422467
387891
371922
364020
370942
385297
416129
473907
581728
883962
1.02482e+06
1.05266e+06
1.08315e+06
1.19373e+06
1.27416e+06
1.31229e+06
1.2668e+06
1.23712e+06
1.17093e+06
1.05889e+06
998896
989923
899880
651293
494422
424321
388075
367446
353005
365843
385553
418909
488459
643467
896664
995324
1.00538e+06
1.05746e+06
1.1695e+06
1.23297e+06
1.26041e+06
1.17324e+06
1.17999e+06
1.14003e+06
1.03911e+06
962628
940279
893659
772499
521510
432166
389753
367686
353126
366023
386653
426178
515490
764978
891829
941804
964433
1.03667e+06
1.13882e+06
1.17493e+06
1.16896e+06
1.03782e+06
1.09961e+06
1.08106e+06
1.01551e+06
933249
892911
874782
794575
577158
451708
395435
369180
354274
367252
391240
444130
570330
797453
874338
888868
931298
1.01278e+06
1.08178e+06
1.09714e+06
1.03733e+06
100459
106742
106624
109010
108486
108382
107173
106654
106448
106639
107764
108315
108637
108830
108538
106256
104747
104003
103709
103760
104167
104418
104733
104718
104791
104823
104814
104475
103280
102053
100165
108090
107350
109752
109007
108916
107871
107443
107262
107656
108489
109013
109443
109178
108141
106226
104751
104100
104072
105476
104907
104657
104948
104664
104536
104487
104227
104007
103953
102870
101864
109945
108819
110728
110067
109806
108879
108507
108369
109140
109521
110057
109841
109291
107985
106608
106355
106388
106891
106037
105232
105227
104993
104533
104257
104020
103865
103929
104020
103961
105442
111604
110563
111896
111252
110736
110109
109940
109805
110038
110325
110537
110015
109212
108416
108413
108115
107809
107752
106335
105779
105927
104691
104330
104138
103976
103813
103867
104002
104355
108781
113386
112402
113386
112818
112152
111625
111287
110849
110766
110954
110784
110114
109692
109536
109162
108776
108444
107880
106529
106460
105794
104727
104325
104135
104056
104024
104073
103959
104584
111764
115251
114297
115111
114828
114172
113217
112695
112044
111798
111755
111079
110633
110109
109899
109534
109164
108638
107661
106997
107177
105643
104944
104737
104308
104123
104030
104063
104276
104766
114497
117050
116271
117033
116764
115413
114281
113627
113066
112417
112137
111512
110779
110433
110051
109673
109314
108601
107719
107726
107020
105705
105562
104721
104262
104044
103982
104090
104424
104817
117285
118832
118271
119176
117721
116036
114880
114234
113557
112709
112307
111691
111052
110641
110152
109720
109346
108546
108266
108125
106726
106087
105658
104781
104507
104253
104168
104230
104353
104842
119851
120554
120117
120247
118133
116290
115136
114524
113761
112829
112364
111768
111132
110769
110215
109744
109353
108681
108424
108003
106756
106476
105423
105095
104530
104317
104213
104253
104473
104855
122189
122396
121397
120725
118278
116367
115231
114657
113829
112860
112371
111784
111153
110822
110244
109749
109362
108744
108293
107523
106949
106383
105493
105104
104520
104348
104253
104288
104476
104797
124168
123755
122019
120910
118331
116393
115262
114708
113846
112851
112033
111644
111153
110832
110249
109740
109335
108749
108252
107512
107122
106384
105741
104806
104431
104322
104239
104287
104487
104069
126047
124428
122275
120977
118355
116402
115273
114723
113628
112313
111439
111031
110831
110591
110050
109476
109076
108703
108291
107545
107268
106462
105719
104826
104584
104204
104220
104256
104149
103162
127160
124715
122358
120985
118196
116294
115144
114564
112754
111367
110593
110207
109980
109662
109155
108818
108694
108561
108376
107687
107197
106736
105655
105013
104836
104018
103972
103844
103454
102903
127624
124824
122132
120574
117723
116086
114709
113845
111343
110073
109440
109125
108878
108439
108103
108002
108311
108433
108405
107736
107349
106738
105708
105533
104746
104036
103573
103319
102486
102434
127754
124745
121534
119810
116929
115517
114019
112498
109971
108744
108135
107786
107538
107288
107133
107075
107872
108261
108364
107731
107339
106658
105943
105668
104664
103941
103246
102693
101921
101867
127664
124057
120754
118664
115845
114486
112942
110968
108467
107256
106698
106392
106259
106220
106211
106473
107219
107538
107592
107434
107217
106693
106134
105557
104796
103930
103018
101897
101262
101021
126764
122843
119730
117236
114491
113083
111357
109055
106805
105742
105266
105047
104980
104995
105362
105846
106553
106933
107202
107292
107220
106860
106343
105632
105015
103969
102872
101677
101232
100794
125843
121220
118589
115319
113052
111332
109439
106851
105045
104182
103790
103622
103576
103776
104320
104906
105670
106174
106967
107259
107370
107169
106771
106243
105234
104088
102758
101867
101318
100884
123966
119033
116879
113436
111357
109392
107320
104685
103215
102513
102223
102132
102124
102574
103231
103807
104545
105180
106588
107240
107391
107388
107033
106378
105300
104110
102566
101990
101506
101119
122159
117061
114544
111606
109278
107361
104987
102553
101431
100932
100743
100683
100733
101394
102252
102783
103355
104404
105853
106966
107413
107490
107161
106409
105362
104107
102700
102006
101415
101098
118980
114350
111992
109416
107159
105238
102512
100642
99791.5
99452
99340.5
99310.1
99481
100311
101316
101804
102269
103620
104954
106618
107386
107525
107177
106464
105350
104019
102832
102226
101232
100924
116243
111712
109541
107355
105049
103070
100260
98804.4
98183.3
98014.3
97999.9
98043.1
98407.3
99385.7
100357
100882
101225
102761
104322
106018
107205
107533
107166
106514
105372
103696
102870
102377
101463
101024
111407
108347
106839
104578
103119
100788
98336.1
97144.1
96686
96593.7
96712.9
96975.1
97393.8
98479.7
99351.5
99804.1
100091
101872
103657
104788
106250
106805
106935
106400
105310
103592
102778
102048
101434
100933
108456
105348
104652
102512
101228
98742.4
96602
95585.7
95233.5
95174.4
95560.5
95948.4
96392.2
97432.8
98168.4
98518.8
98781.9
100671
102494
103413
105286
106223
106545
106420
105296
103572
102763
101951
101401
100911
98523.5
101488
102343
100749
99784.5
97067.5
95104.8
94182.8
93873.1
93823.1
94259.6
94803.7
95218.3
96050.6
96694.4
97002
97293.6
98808.1
100882
102311
104685
105910
106344
106417
105508
103829
103062
102097
101439
100980
100409
100961
101459
102383
102428
102938
102958
102411
101356
101183
101225
101343
101669
102333
103515
105158
105659
105744
105506
104982
104462
104594
104758
105354
106818
106896
107410
105150
105378
99407.8
100902
101265
101671
102186
102536
103035
102880
102496
102299
101354
101257
101335
101652
102309
103506
105268
106311
107190
106569
105739
106170
106511
106742
106253
107133
107310
108059
105778
106597
99111
102173
102014
102152
102148
102514
102839
103148
102984
103615
103756
103190
102921
103027
103573
104639
106077
107198
107788
107718
107239
106888
106983
107862
108613
108061
108265
108972
107092
108318
100654
102860
102656
102388
102197
102458
102652
102971
103753
104110
104774
105692
105197
104840
104865
105308
107001
107816
108241
108231
108114
107695
107683
108198
109650
110325
109463
110056
108770
109882
104079
103345
103130
102836
102731
102530
102644
102987
103967
104531
105370
106563
107125
107109
107194
107484
107843
108384
108755
108889
108943
108922
108659
108860
110260
111520
111333
111523
110591
111597
107268
103724
103594
103417
103118
103119
103175
103113
103878
105053
105724
106799
107892
108098
108145
108294
108491
108851
109285
109489
109881
109893
110124
109847
110530
111970
113721
113404
112474
113416
110136
103881
103804
103625
103215
103276
103325
103716
103895
104949
106144
106825
108097
108431
108524
108723
109031
109152
109682
110314
110521
110496
111029
111782
111904
112371
114633
115402
114543
115186
112826
103948
103870
103656
103161
103433
103654
104005
104149
104803
106224
106757
108127
108540
108681
108931
109270
109644
110076
110629
111073
111436
111701
112444
112641
113331
115295
117662
116643
116969
115527
103970
103869
103353
103209
103470
103805
104013
104403
104935
106209
107035
108063
108564
108727
109009
109395
109890
110247
110746
111299
111762
112600
113207
113182
113712
115585
118869
118554
118669
118031
103878
103305
103002
103441
103501
103757
104090
104681
105097
106100
107144
107895
108539
108733
109025
109450
110009
110337
110788
111327
111893
112918
113479
113593
114120
115728
119408
120076
120356
120298
102882
102794
103146
103365
103460
103531
104190
105157
105410
106103
107046
107835
108396
108711
109015
109464
110046
110362
110785
111324
111913
112994
113622
113749
114233
115842
119569
120814
121750
122196
102171
102584
102988
103211
103353
103614
104375
105337
105833
106593
107046
107821
108062
108402
108793
109360
109963
110303
110692
111019
111751
113007
113641
113780
114350
115897
119599
121118
122467
124038
101199
101619
102488
102411
103221
103656
104550
105304
106028
106783
107250
107818
107895
108022
108262
108738
109211
109747
110151
110473
111131
112518
113514
113774
114400
115925
119489
121217
122788
125117
100455
100791
101445
102284
102800
103653
104506
105331
106113
106850
107332
107828
107808
107684
107627
107737
108053
108723
109192
109584
110244
111626
113071
113439
114195
115704
119105
121214
122912
125574
100164
100507
101210
102211
102518
103480
104542
105421
106153
106869
107356
107814
107727
107370
106709
106789
107055
107423
107847
108278
108950
110369
112101
112773
113709
115200
118605
120522
122945
125707
100161
100472
101111
102071
102562
103449
104551
105464
106231
106871
107394
107531
107381
106904
105941
105967
106006
106115
106403
106778
107334
108514
110416
111801
112995
114439
117646
119745
122468
125647
100186
100471
101091
102036
102795
103683
104679
105565
106420
106950
107405
107426
107140
106335
105381
105119
104914
104899
104970
105203
105718
106788
108502
110435
111852
113314
116341
118725
121361
124786
100154
100450
100996
102026
102903
103989
104840
105656
106430
106976
107419
107286
106725
105556
104763
104254
103760
103499
103542
103714
104122
104959
106452
108685
110271
111929
114512
117645
119875
123905
99667.1
100032
100732
101936
102941
104076
105454
106055
106673
107014
107033
106742
105858
104606
104001
103381
102626
102089
102075
102142
102393
103000
104349
106689
108480
110322
112634
115980
117778
122095
99650.8
100060
100929
101790
102964
104202
105587
106143
106771
107032
106822
106119
104672
103596
103188
102590
101562
100766
100550
100601
100776
101222
102212
104430
106590
108391
110787
113765
115889
120398
99678.5
100109
100999
101783
102975
104337
105431
106200
106812
106956
106543
105446
103646
102614
102298
101784
100703
99594.3
99161.5
99162.6
99222.3
99509.6
100296
102020
104627
106341
108734
111247
113278
117365
99732.6
100264
100989
102124
102970
104348
105483
106205
106728
106611
105934
104588
102788
101628
101368
100890
99962.5
98601.3
98016.3
97739.5
97754.8
97906.5
98466.8
99808.8
102601
104344
106660
108863
110722
114722
99383.2
99885.3
100636
102271
102989
104318
105527
106185
106146
105820
104796
103691
101807
100445
100239
99874.5
99169.7
97726.4
96943.6
96481.9
96283.1
96363.3
96790.4
97946.3
100393
102439
104120
106176
107468
110022
99490.8
99981
100744
101960
103032
104315
105497
105915
105760
105026
103341
102472
100722
99081
98925.2
98675.2
98109.9
96987.8
95995.1
95359.7
94814.3
94875
95228.6
96221.8
98316.8
100608
102022
104008
104532
107100
99638
100132
100853
102078
103342
104558
105525
105638
105409
104429
102368
101315
99298.7
97695.6
97522.2
97374.5
96955.3
96024.2
94970.3
94143.7
93434.6
93485.2
93794.8
94680.2
96515
99230
100301
101659
100756
97410
349051
349202
349368
351129
352481
354464
356628
358542
360017
361121
362001
362810
363629
364437
365208
365954
366676
367395
368130
368857
369573
370259
370722
371036
371191
371237
371242
370962
370435
369678
368703
367514
366116
364518
362718
360693
358555
356317
353484
350695
347719
344559
341208
337683
333974
330057
325965
321694
317254
312651
307867
302937
297863
292659
287340
281914
276403
270821
265188
259523
253838
248149
242476
236814
231196
225616
220096
214654
209294
204027
198861
193807
188874
184075
179416
174914
170587
166486
162596
158752
154823
150952
147380
144189
141260
138411
135712
133175
130792
128547
126434
124487
122691
120949
119183
117469
115912
114458
113003
111663
110419
109286
108245
107393
106552
105773
105065
104319
104179
104103
104107
104122
104139
104159
104131
104207
104341
104346
104267
103909
103111
102075
100402
99946.1
99819.6
349171
349117
349864
351488
353553
355662
357810
359710
361249
362405
363292
364024
364673
365279
365862
366431
367002
367610
368273
368972
369664
370243
370549
370694
370752
370763
370554
370095
369400
368470
367309
365923
364321
362506
360486
358276
355883
353272
350445
347453
344292
340958
337457
333833
330098
325840
321716
317396
312935
308349
303613
298737
293732
288622
283427
278146
272814
267435
262023
256589
251137
245679
240216
234766
229324
223943
218597
213379
208212
203072
197966
192958
188095
183370
178779
174328
170016
165847
161849
157962
154179
150542
147102
143869
140829
137957
135211
132636
130221
127949
125825
123844
121985
120228
118587
117041
115570
114178
112833
111565
110375
109276
108268
107374
106562
105821
105217
104553
104456
104416
104418
104436
104476
104497
104545
104642
104936
105032
104948
104613
103833
102589
100818
100303
100231
348151
347989
349100
350918
353127
355357
357512
359397
360921
362100
363020
363772
364422
365013
365586
366160
366759
367409
368115
368856
369605
370122
370383
370493
370527
370517
370225
369697
368928
367916
366663
365169
363434
361470
359294
356930
354374
351611
348651
345526
342242
338799
335204
331472
327595
323541
319340
315002
310550
306011
301007
296186
291243
286207
281109
275945
270732
265472
260181
254869
249527
244184
238833
233479
228133
222787
217455
212064
206736
201644
196765
191943
187132
182373
177684
173159
168835
164699
160747
156966
153319
149798
146440
143258
140256
137428
134754
132243
129876
127644
125530
123544
121674
119906
118247
116699
115260
113928
112672
111525
110456
109475
108570
107742
107033
106404
105874
105304
105255
105221
105216
105241
105254
105287
105411
105406
105641
105953
105866
105517
104697
103127
101610
101125
100987
346074
345990
347385
349628
352066
354487
356706
358622
360197
361458
362467
363299
364024
364699
365364
366045
366763
367528
368332
369147
369935
370532
370826
370952
370986
370982
370643
370056
369216
368118
366761
365152
363302
361220
358912
356389
353671
350765
347687
344440
341043
337497
333808
329979
326004
321878
317612
313211
308688
304046
299270
294391
289428
284415
279393
273942
268819
263658
258464
253252
247997
242706
237370
232006
226632
221268
215948
210680
205479
200187
194923
189801
185077
180551
176182
171878
167634
163492
159466
155577
151895
148413
145125
142032
139126
136378
133769
131296
128967
126770
124696
122759
120939
119235
117646
116158
114759
113457
112238
111109
110059
109118
108284
107546
106926
106390
105983
105605
105563
105567
105585
105640
105734
105743
105796
105937
106161
106702
106652
106365
105627
104161
102987
102523
102213
343581
343463
345154
347712
350337
352888
355188
357161
358822
360198
361352
362350
363255
364121
364982
365864
366783
367737
368707
369662
370565
371239
371563
371704
371757
371770
371419
370802
369910
368735
367280
365558
363571
361320
358855
356201
353359
350336
347144
343792
340286
336645
332869
328959
324910
320721
316395
311936
307351
302645
297824
292913
287933
282906
277854
272769
267672
262563
257449
252340
246716
241485
236182
230845
225499
220134
214769
209424
204141
198941
193853
188862
183722
178708
174007
169684
165564
161594
157788
154154
150646
147270
144028
140915
137989
135262
132722
130348
128118
126010
124013
122115
120305
118596
116999
115532
114152
112885
111702
110621
109632
108720
107913
107208
106621
106123
105746
105466
105444
105453
105485
105579
105790
105798
105827
105982
106390
107164
107234
107127
106711
105661
104440
104013
103803
340730
340599
342610
345384
348144
350790
353164
355245
357044
358591
359949
361179
362333
363453
364569
365698
366848
368011
369161
370266
371270
372058
372476
372666
372734
372744
372386
371725
370777
369503
367889
365969
363790
361414
358826
356036
353063
349910
346590
343116
339501
335748
331872
327873
323744
319485
315098
310591
305970
301241
296416
291512
286550
281550
276530
271496
266460
261405
256307
251150
245910
240598
235237
229854
224368
218589
213238
207884
202597
197358
192221
187199
182330
177602
172884
168134
163527
159472
155688
152084
148639
145368
142301
139456
136767
134206
131762
129428
127199
125111
123157
121325
119608
117982
116438
114973
113598
112305
111107
109961
108836
107907
107193
106545
105978
105509
105161
104940
104911
104917
104938
104996
105149
105238
105418
105825
106707
107286
107272
107194
106935
106359
105321
104962
104745
337701
337570
339966
342884
345728
348420
350889
353117
355089
356849
358452
359945
361371
362761
364137
365512
366875
368246
369582
370836
371950
372862
373333
373555
373642
373664
373335
372526
371395
369932
368164
366096
363777
361220
358479
355563
352455
349157
345682
342058
338316
334449
330461
326368
322170
317867
313460
308956
304360
299671
294901
290059
285165
280239
275302
270356
265392
260380
255281
250086
244797
239444
234036
228596
223136
217657
212191
206783
201497
195572
190492
185432
180495
175705
171098
166676
162458
158080
153870
149999
146597
143460
140503
137701
135065
132611
130334
128211
126219
124301
122444
120647
118903
117242
115683
114226
112860
111577
110367
109223
108163
107226
106401
105653
105040
104546
104167
103909
103799
103796
103802
103826
103902
104072
104417
105140
106478
106844
106861
106829
106669
106282
105485
105420
105433
334591
334497
337345
340373
343295
346074
348649
351009
353162
355140
356978
358713
360378
362001
363600
365180
366729
368231
369704
371097
372333
373327
373814
374032
374111
374126
373786
372919
371525
369826
367817
365536
363027
360336
357478
354428
351160
347678
343994
340155
336236
332199
328041
323797
319486
315122
310690
306202
301656
297035
292352
287610
282839
278066
273302
268515
263655
258684
253572
248369
243066
237698
232268
226794
221296
215801
210338
204923
199571
194279
189054
183936
178858
173654
169021
164542
160277
156235
152402
148715
145043
141617
138613
135977
133557