/*--------------------------------*- C++ -*----------------------------------*\
| =========                 |                                                 |
| \\      /  F ield         | OpenFOAM: The Open Source CFD Toolbox           |
|  \\    /   O peration     | Version:  2112                                  |
|   \\  /    A nd           | Website:  www.openfoam.com                      |
|    \\/     M anipulation  |                                                 |
\*---------------------------------------------------------------------------*/
FoamFile
{
    version     2.0;
    format      ascii;
    arch        "LSB;label=32;scalar=64";
    class       surfaceScalarField;
    location    "0.00942";
    object      phi;
}
// * * * * * * * * * * * * * * * * * * * * * * * * * * * * * * * * * * * * * //

dimensions      [1 0 -1 0 0 0 0];

oriented        oriented;

internalField   nonuniform List<scalar> 
27436
(
-0.53347
8.19282
-0.0933396
7.47168
-0.0850477
7.78724
-0.0708906
7.78672
-0.0646996
7.78814
-0.0482745
7.78195
-0.0396307
7.78792
-0.0341102
7.79123
-0.0243573
7.78785
-0.0161404
7.78885
-0.00882694
7.78976
0.000558572
7.78794
0.0142205
7.7833
0.0310885
7.78084
0.0462264
7.7823
0.0549113
7.78823
0.0580277
7.79261
0.0658477
7.78972
0.0753464
7.78829
0.0895307
7.78253
0.0961889
7.78791
0.111731
7.78558
0.123719
7.78268
0.573227
7.46034
8.21609
-0.247201
8.44004
-0.0961703
7.32066
-0.0812483
7.77232
-0.0543861
7.75966
-0.0590787
7.79224
-0.0603842
7.77858
-0.0391555
7.76639
-0.0292865
7.7814
-0.0207088
7.77972
-0.00964326
7.77769
0.00188658
7.77789
0.0157388
7.77406
0.0151547
7.78386
0.0216055
7.77442
0.0210575
7.78286
0.0377227
7.77158
0.0466213
7.78371
0.058955
7.77739
0.0823481
7.76491
0.0776815
7.7872
0.0722075
7.79335
0.102953
7.75484
0.114169
7.77115
0.268364
7.30752
8.48981
-0.22723
8.66728
-0.14106
7.23449
-0.120354
7.75166
-0.106592
7.74595
-0.104683
7.79005
-0.10708
7.78085
-0.092739
7.75133
-0.072216
7.76013
-0.0630718
7.76677
-0.0506385
7.76432
-0.0388959
7.76708
-0.0143496
7.74989
-0.012488
7.78216
-0.0113764
7.77329
-0.00826728
7.77972
0.0127051
7.75061
0.0240769
7.77234
0.0473407
7.7541
0.0609417
7.75132
0.0594099
7.78875
0.0638915
7.7889
0.0786962
7.73996
0.100786
7.74899
0.192102
7.21757
8.67904
-0.169494
8.83675
-0.139304
7.20426
-0.133898
7.74621
-0.112754
7.72476
-0.114085
7.79116
-0.111032
7.7776
-0.089684
7.72948
-0.072702
7.74336
-0.059553
7.75363
-0.04433
7.74923
-0.028871
7.75241
-0.00667576
7.72835
0.00311952
7.77256
0.00488338
7.7715
0.0149414
7.76962
0.0352985
7.73023
0.0494445
7.75817
0.0697488
7.73379
0.0885559
7.73252
0.0942404
7.78309
0.0944735
7.7887
0.118987
7.71537
0.111679
7.75646
0.16222
7.16648
8.83558
-0.0735772
8.91033
-0.0363873
7.16706
-0.0923227
7.80213
-0.0626504
7.69493
-0.0705994
7.79902
-0.0692926
7.77721
-0.0516233
7.71169
-0.037482
7.7287
-0.0269718
7.74238
-0.0150338
7.73776
-0.00124042
7.73939
0.0170864
7.71085
0.0269302
7.76292
0.0275939
7.77078
0.0370149
7.76016
0.0543712
7.71284
0.0644613
7.74806
0.0820751
7.71616
0.0969929
7.7176
0.101066
7.77903
0.0968853
7.79291
0.124881
7.68737
0.0903456
7.7911
0.097842
7.15819
8.93013
0.11857
8.79178
0.0438224
7.24184
-0.049985
7.89594
-0.0128835
7.65784
-0.0323771
7.81836
-0.0357889
7.78318
-0.0243604
7.69932
-0.0151225
7.72016
-0.00916473
7.73665
-0.00236204
7.73206
0.00592372
7.73237
0.0198656
7.69754
0.0257079
7.75722
0.024964
7.7714
0.0296398
7.75542
0.04217
7.70029
0.0463691
7.74383
0.0584043
7.70411
0.0684471
7.70756
0.0690586
7.77845
0.0524062
7.80961
0.0884773
7.65126
-0.0136924
7.89359
-0.0207002
7.16508
8.91037
0.304618
8.48722
0.136102
7.41041
-0.00676456
8.03881
0.0217721
7.62926
-0.0238452
7.86383
-0.0486547
7.808
-0.0583757
7.70849
-0.0706476
7.73147
-0.0864015
7.75341
-0.0952755
7.74185
-0.111536
7.75037
-0.119306
7.70583
-0.130827
7.76878
-0.14637
7.7868
-0.158099
7.76711
-0.166397
7.70855
-0.185003
7.76241
-0.193052
7.71215
-0.207971
7.72249
-0.228731
7.79922
-0.262781
7.84372
-0.2847
7.67317
-0.354792
7.96404
-0.658168
7.46809
8.25449
0.873325
7.614
0.521859
7.762
0.410582
8.1501
0.331724
7.70815
0.266555
7.92898
0.226546
7.84879
0.194464
7.73911
0.166751
7.75781
0.13816
7.78429
0.11424
7.76637
0.0838611
7.78234
0.0621701
7.72794
0.03821
7.7927
0.00667669
7.81822
-0.0192817
7.79303
-0.044489
7.73373
-0.0742902
7.79219
-0.100748
7.7386
-0.130662
7.75243
-0.167126
7.83571
-0.228194
7.90485
-0.278958
7.72398
-0.406256
8.09167
-0.693496
7.7552
7.56472
0.593013
7.02114
0.410222
7.9449
0.237914
8.32239
0.187633
7.75817
0.127523
7.98905
0.096533
7.87896
0.0862533
7.74915
0.0790578
7.76354
0.0746842
7.79049
0.0756505
7.76529
0.0732587
7.78566
0.0722729
7.72944
0.0774216
7.78744
0.0766646
7.81891
0.0768969
7.79282
0.072309
7.73832
0.0674487
7.79703
0.0628596
7.74318
0.0561561
7.75915
0.0292977
7.86262
-0.0267264
7.96097
-0.0465912
7.74393
-0.219337
8.26479
-0.372325
7.90839
7.19414
-3.05112
10.0728
-3.392
8.28587
-2.76522
7.69563
-2.61939
7.61275
-2.30273
7.67274
-1.93332
7.50892
-1.65154
7.46612
-1.37604
7.48703
-1.08346
7.49846
-0.785548
7.46654
-0.492787
7.49326
-0.207862
7.44489
0.0984928
7.48098
0.403536
7.51392
0.694708
7.50174
0.967081
7.46596
1.26386
7.50025
1.54067
7.46636
1.83524
7.46454
2.19624
7.5016
2.50175
7.65551
2.65987
7.58592
3.23526
7.6896
2.95105
8.19301
10.1442
-4.25781
14.3312
-4.36852
8.39588
-4.19848
7.52638
-3.90075
7.31675
-3.31949
7.09202
-2.79541
6.98367
-2.35718
7.0258
-1.9232
7.051
-1.46565
7.03967
-1.01864
7.01905
-0.561284
7.03587
-0.120333
7.0042
0.342082
7.01854
0.810876
7.04537
1.25902
7.05384
1.67767
7.04742
2.1308
7.04715
2.56822
7.0289
3.02303
7.00969
3.57521
6.94936
4.13283
7.09787
4.44369
7.27522
4.61497
7.51828
4.56496
8.24333
14.7082
-2.75509
17.087
-4.87309
10.5126
-4.98362
7.63796
-4.1351
6.47136
-3.61908
6.5758
-3.18055
6.54423
-2.70313
6.54558
-2.21147
6.55686
-1.71061
6.53665
-1.22176
6.52961
-0.722913
6.5369
-0.242882
6.52438
0.259528
6.51626
0.762196
6.54325
1.25817
6.55828
1.7188
6.587
2.20684
6.55912
2.69575
6.5399
3.18932
6.51601
3.66549
6.47316
4.24758
6.51572
5.09886
6.42402
4.72203
7.89494
2.7795
10.1856
17.487
2.36844
14.7195
0.182939
12.6967
-4.99749
12.8201
-3.88597
5.36746
-3.79942
6.48927
-3.30993
6.04959
-2.87592
6.1066
-2.3672
6.04638
-1.84384
6.01243
-1.3281
6.01348
-0.810647
6.01938
-0.306066
6.02012
0.212662
5.99782
0.741805
6.01509
1.2646
6.03616
1.78655
6.06545
2.28045
6.0652
2.75993
6.06015
3.19909
6.07653
3.75903
5.91308
3.97196
6.30284
5.10727
5.28876
-0.180505
13.1824
-2.39896
12.4034
15.0879
2.45821
12.2629
3.52485
11.6283
3.46708
12.8809
-0.795422
9.63577
-3.62967
9.32272
-3.20656
5.62927
-2.97208
5.8665
-2.47114
5.54484
-1.94512
5.48816
-1.46478
5.53315
-0.976236
5.53075
-0.47189
5.51699
0.0272457
5.4994
0.536133
5.50798
1.03476
5.53889
1.5249
5.57593
2.02488
5.56512
2.48144
5.60297
2.61034
5.94712
2.9855
5.53793
-0.0911937
9.37997
-4.15759
9.35615
-3.87867
12.9031
-2.95652
11.4804
12.1308
1.87908
10.3854
3.87695
9.63109
5.77367
10.9835
4.96907
10.4355
4.10862
10.1963
-1.20208
10.9166
-2.3818
7.02826
-2.04114
5.20763
-1.62877
5.07807
-1.13758
5.0424
-0.603217
4.99662
-0.0621051
4.97775
0.469848
4.96885
1.00624
4.97409
1.54873
4.9989
2.05782
5.06787
2.44717
5.17516
2.79896
5.25004
1.50173
7.24361
-3.66775
10.7082
-4.23638
9.94967
-4.89058
10.0102
-3.05324
11.0656
-1.33392
9.76053
10.7965
1.0952
9.2911
2.17395
8.55252
3.98397
9.17281
4.93563
9.47904
5.06422
10.0755
5.78278
10.2051
2.77435
10.0244
1.11174
6.86828
-0.0870409
6.27631
-0.398417
5.35205
-0.252629
4.85005
0.0441815
4.68153
0.396008
4.61807
0.719965
4.65183
0.933525
4.78714
0.814505
5.18791
-0.514638
6.50395
-2.33599
7.07052
-5.0295
9.93646
-4.27919
9.95955
-3.97166
9.64205
-3.50798
9.54633
-1.86124
9.41849
-0.761296
8.66043
10.0349
2.00729
7.28368
3.17971
7.37933
4.38104
7.97091
5.94241
7.91719
7.05902
8.96462
6.64259
10.6435
4.68072
11.9855
2.15629
9.38897
0.867892
7.56147
0.165743
6.04836
-0.0264127
5.03837
-0.0660042
4.72072
-0.0379891
4.59158
-0.0350655
4.65121
-0.174208
4.92887
-0.822395
5.83831
-2.37107
8.05327
-4.93479
9.63485
-6.73469
11.7408
-7.24628
10.4707
-6.42409
8.81916
-5.00184
8.12332
-3.70672
8.12356
-2.56062
7.51456
7.47446
2.53268
4.75156
4.15123
5.75956
4.68247
7.43835
4.31838
8.28362
4.53316
8.7506
4.29506
10.8885
4.12841
12.156
2.55024
10.9722
1.36417
8.74519
0.580889
6.82843
0.18925
5.4261
-0.103869
5.01132
-0.397905
4.8832
-0.697148
4.94799
-1.03583
5.2655
-1.90441
6.70593
-3.22586
9.37395
-4.91191
11.3221
-5.83871
12.6698
-6.24833
10.8782
-5.96815
8.53878
-5.94042
8.09553
-4.965
7.14783
-2.94069
5.49007
4.53387
3.16225
1.59011
6.23521
2.68771
8.48738
5.1867
8.25476
8.51618
6.47607
10.529
5.93829
11.4271
5.5975
12.5003
4.88351
11.6908
4.1559
9.47654
3.24069
7.74517
1.98733
6.67999
0.821847
6.17598
-0.327827
6.02985
-1.52116
6.13703
-2.88861
6.62976
-3.97034
7.7854
-4.3839
9.7864
-4.77303
11.7123
-4.64214
12.5406
-5.25451
11.4929
-7.5236
10.8088
-7.85825
8.43012
-5.77183
5.06119
-2.95937
2.67768
1.5746
1.19916
0.390425
2.92408
0.961633
4.93863
3.16708
6.47203
6.97023
5.77382
11.2297
5.45804
11.7484
5.42576
12.5369
4.87316
12.2448
3.81484
10.5369
2.66012
8.90115
1.5142
7.82697
0.382276
7.30769
-0.75028
7.1601
-1.91623
7.30089
-3.16058
7.87298
-4.45222
9.0769
-5.46839
10.8029
-5.88564
12.1304
-5.80796
12.4638
-6.08378
11.769
-6.6782
11.4032
-4.98613
6.73641
-2.98098
3.05507
-1.21166
0.908202
0.362768
0.579483
-0.190505
0.865921
0.674152
1.00423
3.02728
1.33349
6.63335
2.25563
10.3114
2.9153
11.0944
3.42106
12.0312
3.33929
12.3256
2.66826
11.21
1.80008
9.77021
0.94185
8.68492
0.107935
8.14015
-0.72966
7.99659
-1.60122
8.1716
-2.53917
8.81109
-3.48343
10.0217
-4.08912
11.4088
-4.0293
12.0707
-3.41553
11.85
-2.72667
11.0799
-1.6636
10.3399
-1.14215
6.2141
-0.915754
2.82825
-0.596668
0.588806
-0.234481
-0.151613
-0.0383575
-0.29715
0.819347
-0.692359
3.42098
-0.648705
6.58678
0.393902
9.27008
1.30831
10.183
1.90802
11.429
2.04174
12.1899
1.74995
11.5047
1.27702
10.2449
0.723473
9.23956
0.15274
8.71163
-0.406991
8.55724
-0.982043
8.7478
-1.53905
9.36903
-1.98001
10.4634
-2.16744
11.5964
-1.95471
11.8573
-1.27504
11.1702
-0.296849
10.1014
0.805283
9.23706
0.69084
6.32759
0.362987
3.15501
0.2012
0.750113
-0.0337107
-0.524218
0.48616
-1.36093
1.65664
-1.77631
3.83538
-1.79848
6.60732
-0.921515
8.39356
-0.0564265
9.31937
0.47368
10.8956
0.778565
11.8834
0.864263
11.4214
0.731072
10.3792
0.496683
9.47493
0.221891
8.98811
-0.0713143
8.85155
-0.330057
9.00753
-0.526042
9.56561
-0.595138
10.533
-0.462009
11.4632
-0.183896
11.5785
0.447589
10.5382
1.30451
9.24414
2.17048
8.37076
2.03275
6.46461
1.49771
3.68917
0.544703
1.70226
0.510238
-0.398206
0.885269
-1.50099
2.76137
-2.42177
4.75655
-2.54856
6.73438
-2.06728
7.91168
-1.58959
8.84154
-1.01947
10.3225
-0.507534
11.3711
-0.158843
11.0766
0.00345838
10.2189
0.0229592
9.4576
-0.0437877
9.05555
-0.127864
8.93718
-0.201276
9.08212
-0.185759
9.55111
-0.00722502
10.3556
0.349959
11.1066
0.836053
11.0922
1.34398
10.03
1.92706
8.66096
2.46092
7.83593
2.33576
6.58888
1.37035
4.65373
0.356464
2.71594
0.866232
-0.383779
1.26955
-1.39508
3.77514
-2.18306
5.54541
-2.42732
6.97881
-2.19238
7.67737
-1.88197
8.53102
-1.44508
9.88424
-0.918455
10.845
-0.470358
10.6312
-0.220727
9.97076
-0.104344
9.34305
-0.0537965
9.00723
-0.0325406
8.91706
0.0320538
9.01888
0.171526
9.41274
0.439296
10.0889
0.875196
10.6718
1.38148
10.586
1.76989
9.64114
2.10462
8.32566
2.38038
7.55993
2.11498
6.85383
1.30697
5.46091
0.351959
3.67025
1.21716
-0.352337
1.62209
-1.23149
4.65459
-2.05165
6.36634
-2.41453
7.34228
-2.38157
7.64551
-2.15252
8.30258
-1.77103
9.50241
-1.21595
10.2909
-0.721762
10.1399
-0.344812
9.59552
-0.126389
9.12498
0.0188875
8.8619
0.155405
8.78122
0.298421
8.87666
0.530017
9.18191
0.933664
9.68614
1.44536
10.1608
1.96258
10.0691
2.28598
9.3174
2.50395
8.10764
2.51142
7.55152
2.14053
7.22411
1.24714
6.35382
0.359092
4.55769
1.57476
-0.473894
2.09638
-1.38959
5.57145
-2.20651
7.18623
-2.53234
7.66959
-2.59024
7.70269
-2.45678
8.16841
-2.16308
9.209
-1.65624
9.78523
-1.13354
9.61909
-0.745009
9.20747
-0.45737
8.83787
-0.226911
8.63215
-0.028925
8.58366
0.207839
8.64053
0.502732
8.88762
0.880495
9.30926
1.35743
9.68427
1.83434
9.59249
2.14122
9.0108
2.29412
7.95471
2.23963
7.60583
1.95987
7.50335
1.221
7.09299
0.376526
5.40328
1.95117
-0.362127
2.45844
-1.22688
6.43759
-1.97697
7.93518
-2.16822
7.86075
-2.3553
7.8898
-2.26765
8.08134
-1.98634
8.92748
-1.4935
9.29356
-1.02341
9.14972
-0.613208
8.79681
-0.307818
8.5319
-0.0566
8.38074
0.186688
8.34031
0.431505
8.39597
0.743321
8.57623
1.18113
8.87173
1.66355
9.20298
2.10817
9.14814
2.34341
8.77517
2.41377
7.88462
2.20157
7.81763
1.95125
7.75312
1.18421
7.86082
0.368218
6.22097
2.32058
-0.298005
2.75781
-1.19745
7.33769
-1.91711
8.65457
-2.08907
8.02963
-2.23352
8.03225
-2.16379
8.01077
-1.92054
8.68542
-1.49157
8.86553
-1.02713
8.68494
-0.647161
8.41625
-0.313022
8.19711
-0.0177935
8.08461
0.256295
8.06603
0.566605
8.0856
0.916528
8.22651
1.30416
8.48449
1.74525
8.76187
2.15995
8.73386
2.37566
8.55987
2.44148
7.81913
2.28676
7.97202
2.10023
7.93872
1.41967
8.5405
0.462328
7.17877
2.78457
-0.538256
3.29855
-1.45221
8.25392
-2.05503
9.25957
-2.22928
8.2059
-2.40327
8.20654
-2.43831
8.04638
-2.24204
8.48889
-1.78722
8.40989
-1.35057
8.24658
-0.936023
8.00005
-0.59846
7.85872
-0.29789
7.78448
0.00168882
7.7662
0.295844
7.79148
0.636376
7.88585
1.05807
8.06304
1.48699
8.33299
1.87858
8.34272
2.08078
8.35734
2.04576
7.85482
1.93222
8.08515
1.72319
8.14623
1.13729
9.12613
0.361625
7.95705
3.14974
-0.43264
3.73032
-1.27987
9.09629
-1.8943
9.86957
-2.03515
8.34458
-2.03747
8.20863
-2.01422
8.02383
-1.82491
8.29988
-1.47116
8.05516
-1.07298
7.84672
-0.726382
7.65237
-0.390964
7.52258
-0.0715811
7.46352
0.23343
7.461
0.564389
7.46029
0.906551
7.54365
1.26383
7.70548
1.64941
7.94789
2.00631
7.98495
2.15255
8.21035
2.16261
7.84469
2.1454
8.10256
1.95127
8.34037
1.43887
9.63752
0.544779
8.85184
3.69158
-0.418553
4.15069
-0.813172
9.4937
-1.57451
10.6316
-1.75734
8.52446
-1.81798
8.2669
-1.7782
7.98322
-1.65173
8.17173
-1.32267
7.72505
-0.999922
7.52146
-0.656108
7.30753
-0.353002
7.219
-0.0663457
7.17785
0.231512
7.16277
0.508002
7.18366
0.817586
7.2339
1.18518
7.33764
1.52311
7.6093
1.80678
7.70198
1.92993
8.08659
1.95218
7.82146
1.93703
8.11615
1.87639
8.40011
1.10718
10.4091
0.494764
9.45561
4.17207
-0.663459
4.81024
-1.10766
9.94297
-1.86078
11.3876
-1.98441
8.65337
-1.95318
8.23921
-1.88925
7.92063
-1.71337
7.99616
-1.42625
7.43494
-1.10928
7.20261
-0.821438
7.01886
-0.527898
6.92459
-0.225947
6.87426
0.0600203
6.87647
0.372328
6.87116
0.670457
6.93533
0.95443
7.05359
1.25354
7.30989
1.53912
7.41547
1.67973
7.94601
1.75549
7.74626
1.75117
8.12012
1.69673
8.45417
0.744379
11.361
0.411479
9.785
4.58782
-0.468619
5.27699
-0.787594
10.2603
-1.3928
11.9843
-1.60265
8.86116
-1.65825
8.29282
-1.60563
7.86722
-1.45244
7.83901
-1.18866
7.16969
-0.911327
6.9238
-0.607574
6.71475
-0.327383
6.64426
-0.0650908
6.61235
0.215604
6.5953
0.47045
6.61597
0.752282
6.65354
1.06905
6.73653
1.35089
7.02801
1.59921
7.16636
1.74943
7.79536
1.76467
7.73107
1.75544
8.12998
1.42149
8.78849
0.942554
11.8387
0.556882
10.1648
5.15023
-0.344923
5.62034
-0.510517
10.4215
-1.00976
12.4781
-1.51875
9.36496
-1.56059
8.33242
-1.48222
7.78845
-1.26737
7.62213
-1.05609
6.95681
-0.816149
6.68241
-0.580549
6.47879
-0.333976
6.397
-0.0719603
6.34934
0.1705
6.35221
0.4408
6.34525
0.686056
6.40802
0.920386
6.50201
1.16209
6.7863
1.38798
6.94059
1.56704
7.61522
1.62154
7.67368
1.67787
8.07145
1.21349
9.25064
0.69336
12.3589
0.395026
10.4724
5.54334
-0.441648
6.05585
-0.69815
10.6664
-0.992398
12.7733
-1.60204
9.9801
-1.56553
8.30125
-1.51799
7.74689
-1.37527
7.47984
-1.12435
6.70426
-0.910545
6.46742
-0.657339
6.2255
-0.417392
6.15683
-0.1956
6.12729
0.0486727
6.10755
0.264833
6.12882
0.513475
6.15912
0.775517
6.23989
0.985918
6.57539
1.2077
6.71955
1.35566
7.46882
1.38427
7.64538
1.3405
8.11468
0.702483
9.88704
0.374867
12.6904
0.253338
10.6064
5.79501
-0.254527
6.30709
-0.369331
10.7846
-0.499774
12.9032
-1.24778
10.722
-1.37199
8.42021
-1.33952
7.71066
-1.12641
7.26077
-0.91011
6.48763
-0.698861
6.25607
-0.503042
6.02965
-0.288809
5.94167
-0.052429
5.89006
0.163174
5.89164
0.408856
5.88274
0.618214
5.94969
0.813765
6.04375
1.03462
6.35391
1.2684
6.48388
1.46029
7.27638
1.4822
7.62293
1.39754
8.19988
0.658487
10.627
0.59058
12.7622
0.409942
10.7888
6.1981
-0.0542818
6.36034
-0.069958
10.8051
-0.102299
12.9397
-0.786547
11.3966
-1.17776
8.80937
-1.13629
7.669
-1.02794
7.1529
-0.833081
6.29387
-0.654898
6.07739
-0.445249
5.81995
-0.242131
5.73804
-0.0603342
5.70815
0.147154
5.68383
0.321863
5.70773
0.527278
5.74373
0.753124
5.81779
0.929247
6.17769
1.11386
6.29887
1.26863
7.11988
1.34941
7.54044
0.939595
8.60675
0.288634
11.278
0.249969
12.803
0.182141
10.8532
6.37556
-0.228653
6.58658
-0.384454
10.9674
-0.226281
12.7875
-0.745128
11.9278
-1.32777
9.39989
-1.23258
7.58001
-1.06313
6.98575
-0.882451
6.11143
-0.690898
5.885
-0.524803
5.65336
-0.353714
5.56622
-0.150954
5.50475
0.0316461
5.50091
0.235765
5.50317
0.406553
5.57255
0.570152
5.65375
0.768537
5.97912
0.940551
6.12755
1.04898
7.01254
1.11179
7.47742
0.429588
9.29198
-0.125489
11.8326
0.0251946
12.6569
0.0566998
10.8205
6.43158
-0.0407954
6.62911
-0.0668218
10.9916
0.115045
12.6102
-0.189142
12.2351
-0.871206
10.0603
-0.939707
7.64201
-0.862818
6.90294
-0.718026
5.96467
-0.574017
5.74143
-0.385971
5.46539
-0.202337
5.38236
-0.043027
5.34528
0.136237
5.32125
0.293196
5.34571
0.476851
5.38841
0.680477
5.44928
0.823476
5.83541
0.967911
5.98013
1.09571
6.88347
1.02336
7.55026
0.353521
9.96257
0.0552121
12.1311
0.239808
12.4738
0.168985
10.8939
6.60099
0.0137809
6.6215
0.0740003
10.9278
0.293379
12.3901
0.240957
12.2914
-0.539795
10.8289
-0.903924
8.00565
-0.733665
6.73559
-0.635595
5.86844
-0.487678
5.59406
-0.352144
5.33019
-0.209725
5.23978
-0.0431366
5.17818
0.112529
5.16523
0.286724
5.1712
0.423836
5.25093
0.562608
5.31054
0.729095
5.66894
0.82916
5.88107
1.04439
6.66585
0.738949
7.85262
-0.0452414
10.7436
-0.174639
12.2609
0.0440931
12.2572
0.0715876
10.8731
6.68045
-0.123716
6.75126
-0.0946773
10.8981
0.0705589
12.2254
0.150149
12.2213
-0.320143
11.3176
-0.817336
8.51202
-0.775858
6.69634
-0.662365
5.75304
-0.568722
5.49945
-0.417251
5.17745
-0.262385
5.08479
-0.123638
5.03956
0.0278805
5.01335
0.160597
5.03805
0.321544
5.08955
0.478084
5.1535
0.560985
5.58587
0.636754
5.80471
0.711324
6.59293
0.136862
8.4259
-0.492663
11.3708
-0.328084
12.0965
-0.210268
12.1414
-0.0935046
10.7605
6.59173
-0.0280736
6.7837
0.0411599
10.8312
0.193223
12.0774
0.540953
11.8784
0.105973
11.7401
-0.497595
9.10413
-0.647016
6.8364
-0.508689
5.61416
-0.411874
5.40396
-0.304181
5.07145
-0.182842
4.96387
-0.0356406
4.89219
0.104048
4.87341
0.257584
4.88434
0.373996
4.97288
0.492452
5.03427
0.623335
5.45312
0.749595
5.67614
0.622234
6.71789
0.0299256
9.02073
-0.324724
11.7296
-0.0598244
11.8321
0.0695746
12.0109
0.128925
10.7036
6.72161
0.0965822
6.69029
0.266362
10.6671
0.314064
12.0326
0.572221
11.6259
0.730074
11.5874
-0.0479373
9.87733
-0.466343
7.26362
-0.448344
5.59982
-0.372944
5.32948
-0.271125
4.96835
-0.146088
4.83859
-0.031533
4.77782
0.0964012
4.74522
0.208769
4.7717
0.343194
4.83814
0.455651
4.92267
0.545437
5.36417
0.595841
5.62567
0.301914
7.0086
-0.513411
9.83059
-0.433782
11.6437
-0.15895
11.5588
-0.0994747
11.9496
-0.024483
10.6306
6.69522
-0.117648
6.81135
-0.00895233
10.5649
0.0954375
11.934
0.359635
11.3649
0.632174
11.323
0.0657363
10.4505
-0.407163
7.74312
-0.466898
5.6537
-0.383751
5.24526
-0.304192
4.88964
-0.216681
4.75114
-0.094022
4.65473
0.0232751
4.62769
0.145737
4.64943
0.230387
4.75358
0.311831
4.83912
0.395775
5.27897
0.305185
5.71594
-0.180769
7.4968
-0.862487
10.5111
-0.551266
11.3303
-0.314696
11.3232
-0.244812
11.8764
-0.0576661
10.444
6.63453
0.0490354
6.76531
0.232324
10.3859
0.28486
11.8822
0.467596
11.1741
0.864619
10.9209
0.691218
10.6124
-0.00431624
8.43054
-0.302805
5.95432
-0.317928
5.26266
-0.216327
4.78957
-0.120082
4.65539
-0.0290964
4.56407
0.0795893
4.51892
0.171039
4.55786
0.279364
4.6448
0.354471
4.76509
0.385665
5.24644
0.11432
5.98341
-0.554804
8.16166
-0.773495
10.7323
-0.345373
10.9093
-0.133963
11.1153
-0.0896459
11.8334
0.0409521
10.3125
6.67414
0.0632602
6.70339
0.293527
10.1566
0.403361
11.7694
0.578216
11.0069
0.842988
10.6594
0.962763
10.5054
0.307333
9.09378
-0.0781695
6.34992
-0.212493
5.39716
-0.159884
4.73584
-0.0977036
4.59286
-0.0164975
4.48214
0.0722754
4.43
0.161918
4.46824
0.2274
4.57896
0.306875
4.68592
0.225769
5.32975
-0.164951
6.37454
-0.865635
8.85607
-0.709414
10.5702
-0.413325
10.6127
-0.22313
10.9258
-0.137733
11.7484
0.0251671
10.1504
6.69961
-0.0241535
6.72832
0.146057
9.98674
0.265796
11.6513
0.40144
10.8742
0.62134
10.4355
1.02586
10.1025
0.711997
9.40381
0.0662654
6.99239
-0.226521
5.68692
-0.187734
4.69744
-0.127244
4.53283
-0.0574
4.41296
0.0114028
4.36101
0.0751011
4.40399
0.13799
4.51578
0.17221
4.64919
-0.0996514
5.59916
-0.768873
7.04329
-1.2192
9.3086
-0.764465
10.1225
-0.53426
10.3882
-0.404357
10.7977
-0.290048
11.6342
-0.0761915
9.93802
6.62325
-0.0239576
6.75271
0.230446
9.73878
0.417236
11.4607
0.521116
10.7583
0.735483
10.2134
1.01563
9.81592
0.970308
9.44544
0.352892
7.61009
0.00247775
6.0399
-0.0991974
4.80017
-0.0618507
4.49553
-0.0116488
4.36255
0.0351624
4.31404
0.0930369
4.34633
0.134141
4.47451
0.0682488
4.71519
-0.280276
5.94575
-0.889306
7.64642
-1.02722
9.44646
-0.699377
9.79324
-0.459081
10.1492
-0.349811
10.6907
-0.163161
11.4495
0.0723027
9.70673
6.69682
0.0194671
6.72525
0.273668
9.48326
0.544232
11.1924
0.61972
10.6859
0.786312
10.0524
1.00469
9.59589
1.32194
9.13515
0.89017
8.04693
0.174174
6.75531
-0.00692785
4.98028
-0.0164897
4.50404
0.00703653
4.33921
0.0325668
4.28838
0.0671367
4.31118
0.067449
4.47387
-0.109527
4.89218
-0.817155
6.65457
-1.23758
8.07299
-0.953891
9.16884
-0.715003
9.55306
-0.520749
9.95095
-0.431994
10.6016
-0.187746
11.2083
0.0532623
9.46791
6.75009
-0.0314299
-0.856837
-0.0445565
-0.903869
-0.0636227
-0.939921
-0.0824809
-1.02219
-0.106173
-1.11324
-0.130019
-1.19595
-0.152474
-1.24344
-0.173025
-1.24926
-0.189912
-1.2244
-0.198777
-1.18078
-0.200545
-1.14852
-0.193299
-1.13809
-0.193126
-1.1644
-0.194988
-1.17866
-0.19982
-1.17434
-0.201428
-1.17447
-0.194868
-1.19097
-0.184086
-1.21604
-0.174875
-1.25022
-0.164283
-1.31068
-0.15237
-1.37692
-0.14345
-1.39889
-0.119187
-1.43056
-0.0981501
-1.48744
-0.079428
-1.54679
-0.0618674
-1.5868
-0.0448826
-1.62906
-0.0272029
-1.63926
-0.0122758
-1.69501
-1.58886
0.034174
-0.88663
0.00919407
-0.875471
-0.00905443
-0.922809
-0.039078
-0.997504
-0.064211
-1.0969
-0.0915722
-1.17994
-0.119629
-1.2296
-0.143652
-1.24112
-0.162565
-1.22137
-0.172519
-1.18456
-0.174159
-1.14435
-0.175971
-1.12664
-0.169962
-1.13945
-0.170966
-1.15736
-0.174425
-1.15995
-0.177615
-1.17605
-0.171329
-1.19767
-0.167905
-1.22953
-0.173392
-1.29109
-0.161331
-1.38389
-0.145589
-1.37713
-0.137643
-1.4056
-0.119773
-1.46839
-0.101101
-1.4891
-0.082536
-1.52584
-0.0656894
-1.55323
-0.0480176
-1.59157
-0.0311045
-1.62849
-0.012585
-1.65592
-1.61403
-0.00901341
-0.872515
-0.0428393
-0.83891
-0.072526
-0.894758
-0.104989
-0.972518
-0.137425
-1.07328
-0.167
-1.15874
-0.195925
-1.21518
-0.21953
-1.23578
-0.234276
-1.22401
-0.237457
-1.19699
-0.236938
-1.15407
-0.228493
-1.14566
-0.223461
-1.12838
-0.222753
-1.14008
-0.211865
-1.15835
-0.211756
-1.19854
-0.213276
-1.25106
-0.213334
-1.28439
-0.204499
-1.36462
-0.181972
-1.36569
-0.168189
-1.38268
-0.159117
-1.45922
-0.1397
-1.45706
-0.118465
-1.4669
-0.0979361
-1.49869
-0.0771312
-1.52657
-0.057432
-1.55981
-0.0376148
-1.59442
-0.0178146
-1.62472
-1.57928
-0.0392922
-0.827662
-0.0750037
-0.801263
-0.11605
-0.856666
-0.155672
-0.94075
-0.194629
-1.04224
-0.225928
-1.13091
-0.260292
-1.19629
-0.288593
-1.22713
-0.302139
-1.22345
-0.29727
-1.20347
-0.292165
-1.16708
-0.277922
-1.15495
-0.26915
-1.13472
-0.25201
-1.14541
-0.253159
-1.20409
-0.256639
-1.24444
-0.25014
-1.26867
-0.249896
-1.29965
-0.234225
-1.35485
-0.20739
-1.35661
-0.201713
-1.38421
-0.181257
-1.44755
-0.161778
-1.44724
-0.14009
-1.46509
-0.117819
-1.48741
-0.0932131
-1.52091
-0.069233
-1.55048
-0.0445886
-1.57923
-0.0216802
-1.58303
-1.55244
-0.0429792
-0.779132
-0.0825825
-0.760455
-0.126849
-0.816173
-0.172355
-0.902797
-0.213622
-1.00781
-0.251216
-1.10031
-0.288085
-1.1699
-0.315825
-1.20858
-0.326193
-1.21614
-0.327023
-1.20948
-0.317708
-1.1826
-0.306881
-1.16711
-0.286964
-1.15743
-0.28248
-1.17714
-0.282818
-1.20763
-0.281458
-1.25137
-0.266116
-1.28536
-0.255589
-1.31096
-0.235783
-1.32859
-0.219757
-1.35249
-0.211544
-1.42695
-0.184392
-1.41711
-0.166722
-1.4342
-0.146944
-1.46703
-0.124039
-1.49409
-0.0991815
-1.52544
-0.074695
-1.55071
-0.048452
-1.56741
-0.0241177
-1.55443
-1.5251
-0.0408084
-0.73305
-0.0883963
-0.712425
-0.138256
-0.770928
-0.188507
-0.859758
-0.233923
-0.968195
-0.276628
-1.06515
-0.315891
-1.13374
-0.346122
-1.18343
-0.351009
-1.2167
-0.355163
-1.22027
-0.347039
-1.20572
-0.335604
-1.18604
-0.320538
-1.18366
-0.309244
-1.19152
-0.304915
-1.21992
-0.298904
-1.24956
-0.286419
-1.2867
-0.267012
-1.31585
-0.240222
-1.31822
-0.23671
-1.35371
-0.221519
-1.41063
-0.194193
-1.39737
-0.177766
-1.43166
-0.153955
-1.47244
-0.13147
-1.47944
-0.105537
-1.49753
-0.0795946
-1.51611
-0.0528703
-1.53605
-0.0270747
-1.559
-1.49884
-0.047624
-0.680376
-0.098087
-0.662233
-0.152849
-0.720973
-0.206172
-0.814601
-0.255281
-0.921684
-0.302282
-1.01813
-0.345989
-1.09667
-0.377722
-1.15578
-0.388426
-1.20627
-0.389899
-1.22586
-0.382269
-1.22362
-0.365032
-1.21694
-0.347994
-1.20664
-0.338415
-1.20881
-0.329845
-1.22254
-0.317602
-1.25113
-0.300604
-1.28273
-0.273859
-1.30293
-0.255287
-1.32647
-0.249336
-1.38728
-0.219052
-1.38213
-0.204766
-1.38772
-0.187249
-1.44647
-0.16096
-1.44215
-0.136519
-1.46384
-0.110893
-1.48063
-0.0839693
-1.49979
-0.0567121
-1.52023
-0.0294432
-1.51957
-1.47342
-0.0524191
-0.623072
-0.108667
-0.6069
-0.170597
-0.664078
-0.22426
-0.766115
-0.277104
-0.869273
-0.32583
-0.965811
-0.374225
-1.05207
-0.409287
-1.12611
-0.424635
-1.1863
-0.427896
-1.2204
-0.422008
-1.23271
-0.410529
-1.23432
-0.390198
-1.22766
-0.371563
-1.22664
-0.352914
-1.23391
-0.336951
-1.25317
-0.317058
-1.28061
-0.283713
-1.302
-0.274022
-1.35133
-0.260542
-1.37329
-0.228252
-1.35919
-0.215474
-1.40807
-0.192418
-1.41445
-0.17057
-1.4312
-0.143685
-1.45734
-0.117539
-1.47241
-0.0898092
-1.48792
-0.0612942
-1.50367
-0.0327521
-1.50215
-1.45265
-0.0603542
-0.55703
-0.117489
-0.551321
-0.178077
-0.608072
-0.238762
-0.709092
-0.295275
-0.811769
-0.347436
-0.908329
-0.396444
-1.00229
-0.436103
-1.08649
-0.456257
-1.15715
-0.463486
-1.20393
-0.459926
-1.23186
-0.44837
-1.24476
-0.426713
-1.24664
-0.402128
-1.24587
-0.379312
-1.24772
-0.357726
-1.25985
-0.333894
-1.28242
-0.303422
-1.312
-0.288997
-1.34087
-0.26107
-1.35102
-0.242878
-1.35546
-0.222747
-1.39498
-0.199619
-1.39332
-0.177569
-1.4289
-0.150598
-1.44011
-0.123679
-1.45921
-0.0952589
-1.47603
-0.0657708
-1.49015
-0.0354372
-1.48228
-1.43416
-0.0614646
-0.48923
-0.124242
-0.490919
-0.185967
-0.550334
-0.249687
-0.647648
-0.308712
-0.750458
-0.36229
-0.847967
-0.412588
-0.947952
-0.455975
-1.03945
-0.481433
-1.11821
-0.493427
-1.17728
-0.492863
-1.22219
-0.481924
-1.24852
-0.459549
-1.26045
-0.432297
-1.26387
-0.403891
-1.26391
-0.37756
-1.27087
-0.352464
-1.287
-0.321925
-1.31215
-0.301953
-1.33109
-0.273038
-1.32616
-0.252527
-1.35514
-0.22459
-1.37935
-0.206372
-1.3915
-0.1817
-1.40648
-0.158181
-1.42017
-0.130492
-1.44621
-0.101261
-1.46287
-0.0700802
-1.47463
-0.0377922
-1.46535
-1.41447
-0.0644851
-0.41819
-0.127798
-0.429859
-0.192178
-0.489409
-0.25704
-0.584073
-0.31704
-0.687242
-0.370392
-0.786632
-0.42232
-0.889775
-0.468571
-0.986218
-0.499253
-1.07056
-0.515252
-1.14112
-0.519343
-1.19862
-0.510392
-1.24034
-0.48905
-1.26618
-0.460888
-1.27776
-0.42892
-1.28036
-0.397801
-1.28441
-0.369541
-1.29323
-0.343981
-1.30847
-0.314678
-1.33211
-0.282106
-1.3329
-0.259462
-1.36993
-0.232258
-1.37125
-0.211649
-1.39284
-0.184345
-1.37839
-0.165205
-1.4059
-0.136691
-1.43293
-0.106557
-1.45018
-0.0750253
-1.46076
-0.039135
-1.45207
-1.33988
-0.0640345
-0.347104
-0.129922
-0.366136
-0.196688
-0.425711
-0.261396
-0.520045
-0.320999
-0.623498
-0.375206
-0.724163
-0.427683
-0.828963
-0.474786
-0.929254
-0.508307
-1.01465
-0.527564
-1.09755
-0.537776
-1.16117
-0.533494
-1.21568
-0.515651
-1.25498
-0.48766
-1.27775
-0.452256
-1.28862
-0.416369
-1.29363
-0.384757
-1.29928
-0.355908
-1.30966
-0.322562
-1.33014
-0.289654
-1.34149
-0.265933
-1.35987
-0.240426
-1.37248
-0.213615
-1.37772
-0.191338
-1.37808
-0.171021
-1.411
-0.143214
-1.40706
-0.112451
-1.438
-0.078181
-1.4481
-0.0359748
-1.43628
-1.34289
-0.0679086
-0.27245
-0.132816
-0.303253
-0.199766
-0.361544
-0.263324
-0.456558
-0.321612
-0.560257
-0.376288
-0.66198
-0.42905
-0.766894
-0.475661
-0.869226
-0.509598
-0.957267
-0.53604
-1.04119
-0.549358
-1.113
-0.549913
-1.17763
-0.537195
-1.22878
-0.51208
-1.26213
-0.472928
-1.28393
-0.436642
-1.29578
-0.400082
-1.30618
-0.369079
-1.31112
-0.336158
-1.32941
-0.29956
-1.34546
-0.275509
-1.35838
-0.250247
-1.37852
-0.22
-1.37327
-0.200118
-1.38257
-0.170249
-1.40984
-0.148919
-1.39885
-0.116548
-1.42527
-0.0811658
-1.43385
-0.0376508
-1.41551
-1.33595
-0.0690149
-0.197011
-0.137434
-0.236757
-0.19997
-0.301156
-0.261973
-0.393871
-0.318888
-0.498404
-0.37409
-0.600655
-0.4243
-0.70612
-0.471602
-0.804178
-0.50445
-0.896458
-0.533374
-0.979987
-0.551236
-1.05711
-0.557688
-1.12895
-0.551184
-1.18985
-0.52685
-1.23516
-0.495424
-1.26901
-0.460792
-1.28971
-0.419885
-1.31081
-0.379337
-1.31886
-0.344654
-1.32969
-0.309429
-1.34635
-0.285187
-1.36104
-0.255303
-1.3685
-0.231381
-1.37012
-0.208911
-1.41786
-0.175731
-1.39276
-0.152462
-1.39313
-0.119683
-1.41367
-0.0802903
-1.41901
-0.040011
-1.38681
-1.32401
-0.0702665
-0.120429
-0.138672
-0.169731
-0.198204
-0.242805
-0.258434
-0.332404
-0.314059
-0.439309
-0.368538
-0.542203
-0.416625
-0.647333
-0.457504
-0.739505
-0.495762
-0.829901
-0.526153