/*--------------------------------*- C++ -*----------------------------------*\
| =========                 |                                                 |
| \\      /  F ield         | OpenFOAM: The Open Source CFD Toolbox           |
|  \\    /   O peration     | Version:  2112                                  |
|   \\  /    A nd           | Website:  www.openfoam.com                      |
|    \\/     M anipulation  |                                                 |
\*---------------------------------------------------------------------------*/
FoamFile
{
    version     2.0;
    format      ascii;
    arch        "LSB;label=32;scalar=64";
    class       volScalarField;
    location    "0.00525";
    object      epsilon;
}
// * * * * * * * * * * * * * * * * * * * * * * * * * * * * * * * * * * * * * //

dimensions      [0 2 -3 0 0 0 0];

internalField   nonuniform List<scalar> 
13875
(
1.16001e+06
2.94635e+07
3.28216e+07
3.28354e+07
3.29061e+07
3.28448e+07
3.29174e+07
3.29801e+07
3.28992e+07
3.28694e+07
3.29098e+07
3.29173e+07
3.2876e+07
3.28356e+07
3.28718e+07
3.2922e+07
3.29347e+07
3.29025e+07
3.28916e+07
3.28611e+07
3.29025e+07
3.28341e+07
3.27968e+07
2.94691e+07
1.17842e+06
1.31389e+06
2.2748e+07
2.53545e+07
2.52385e+07
2.52768e+07
2.52147e+07
2.52385e+07
2.52666e+07
2.52119e+07
2.52142e+07
2.52394e+07
2.52547e+07
2.52149e+07
2.51842e+07
2.52098e+07
2.52481e+07
2.52437e+07
2.52395e+07
2.52295e+07
2.5232e+07
2.52715e+07
2.52204e+07
2.53225e+07
2.27491e+07
1.34289e+06
1.57303e+06
1.97069e+07
2.18298e+07
2.16292e+07
2.16917e+07
2.16301e+07
2.15664e+07
2.15606e+07
2.15057e+07
2.14961e+07
2.15222e+07
2.1551e+07
2.16121e+07
2.15919e+07
2.16067e+07
2.15533e+07
2.15322e+07
2.15338e+07
2.1552e+07
2.16458e+07
2.1685e+07
2.16007e+07
2.17854e+07
1.96884e+07
1.58519e+06
1.81373e+06
1.73853e+07
1.90385e+07
1.88832e+07
1.89616e+07
1.89079e+07
1.88287e+07
1.88226e+07
1.87731e+07
1.87548e+07
1.87701e+07
1.8792e+07
1.88884e+07
1.88701e+07
1.88846e+07
1.88041e+07
1.87898e+07
1.87773e+07
1.88065e+07
1.89186e+07
1.89526e+07
1.88564e+07
1.9011e+07
1.73663e+07
1.82093e+06
2.0228e+06
1.54523e+07
1.67727e+07
1.66247e+07
1.66992e+07
1.66505e+07
1.65691e+07
1.65668e+07
1.65283e+07
1.65141e+07
1.65246e+07
1.65369e+07
1.66304e+07
1.66176e+07
1.66272e+07
1.65525e+07
1.65436e+07
1.65272e+07
1.65509e+07
1.66569e+07
1.66907e+07
1.66041e+07
1.67428e+07
1.54315e+07
2.03639e+06
2.20649e+06
1.3712e+07
1.49283e+07
1.47421e+07
1.4828e+07
1.47716e+07
1.46808e+07
1.46808e+07
1.46489e+07
1.46369e+07
1.46457e+07
1.465e+07
1.47422e+07
1.47336e+07
1.47379e+07
1.46683e+07
1.46636e+07
1.46438e+07
1.46638e+07
1.47761e+07
1.482e+07
1.47284e+07
1.49022e+07
1.38483e+07
2.22263e+06
2.42257e+06
1.22509e+07
1.34782e+07
1.32105e+07
1.32686e+07
1.32005e+07
1.30965e+07
1.3095e+07
1.30651e+07
1.30533e+07
1.30602e+07
1.30591e+07
1.31502e+07
1.31443e+07
1.31441e+07
1.30794e+07
1.30787e+07
1.30581e+07
1.30829e+07
1.32008e+07
1.3259e+07
1.32026e+07
1.34227e+07
1.19518e+07
2.42942e+06
2.66598e+06
1.0615e+07
1.23126e+07
1.19759e+07
1.19987e+07
1.18891e+07
1.17663e+07
1.17535e+07
1.17223e+07
1.17092e+07
1.17198e+07
1.17105e+07
1.18012e+07
1.17998e+07
1.17933e+07
1.17332e+07
1.17379e+07
1.17179e+07
1.17484e+07
1.18842e+07
1.19824e+07
1.19672e+07
1.22619e+07
1.05393e+07
2.69479e+06
3.49622e+06
1.02122e+07
1.14842e+07
1.10326e+07
1.09433e+07
1.07932e+07
1.06489e+07
1.06227e+07
1.05867e+07
1.05697e+07
1.05881e+07
1.05722e+07
1.06613e+07
1.06647e+07
1.06532e+07
1.05998e+07
1.06055e+07
1.05854e+07
1.06225e+07
1.078e+07
1.09291e+07
1.10272e+07
1.14787e+07
1.03411e+07
3.57661e+06
6.83304e+06
1.22134e+07
1.11924e+07
1.04237e+07
1.01737e+07
9.94453e+06
9.78144e+06
9.74015e+06
9.70103e+06
9.68364e+06
9.70438e+06
9.68666e+06
9.76883e+06
9.77712e+06
9.76317e+06
9.72128e+06
9.72504e+06
9.71218e+06
9.74693e+06
9.91801e+06
1.01458e+07
1.03935e+07
1.11603e+07
1.21185e+07
6.88449e+06
1.49133e+07
1.86956e+07
1.20505e+07
1.03373e+07
9.64759e+06
9.34277e+06
9.16103e+06
9.08351e+06
9.03929e+06
9.02312e+06
9.04067e+06
9.0238e+06
9.09512e+06
9.10855e+06
9.1002e+06
9.07352e+06
9.07777e+06
9.07702e+06
9.13243e+06
9.30128e+06
9.62226e+06
1.02879e+07
1.19033e+07
1.79913e+07
1.50029e+07
2.54659e+07
6.89433e+07
1.81775e+07
1.07116e+07
9.73843e+06
9.05717e+06
8.74904e+06
8.63954e+06
8.57716e+06
8.55876e+06
8.5673e+06
8.55442e+06
8.60981e+06
8.62755e+06
8.62971e+06
8.61898e+06
8.62767e+06
8.65197e+06
8.7288e+06
9.0352e+06
9.66293e+06
1.05236e+07
1.74826e+07
6.80651e+07
2.50294e+07
2.66003e+07
7.61516e+07
8.70824e+07
2.40532e+07
1.09936e+07
9.20904e+06
8.79614e+06
8.51437e+06
8.4092e+06
8.36448e+06
8.35283e+06
8.3376e+06
8.37529e+06
8.39686e+06
8.41442e+06
8.42967e+06
8.47149e+06
8.5621e+06
8.82308e+06
9.23526e+06
1.13553e+07
2.26184e+07
8.07012e+07
7.67923e+07
2.61039e+07
2.63217e+07
5.52514e+07
8.01259e+07
1.05728e+08
5.8263e+07
1.31053e+07
9.79524e+06
9.08631e+06
8.81383e+06
8.76136e+06
8.75e+06
8.73828e+06
8.76893e+06
8.79039e+06
8.81116e+06
8.8304e+06
8.89001e+06
9.13572e+06
1.00693e+07
1.44009e+07
6.77344e+07
9.09957e+07
7.51339e+07
5.46631e+07
2.57506e+07
2.53669e+07
4.28902e+07
5.84506e+07
7.34936e+07
7.62151e+07
7.54253e+07
2.36659e+07
1.45025e+07
1.26152e+07
1.16003e+07
1.11777e+07
1.10237e+07
1.10208e+07
1.10475e+07
1.11199e+07
1.1435e+07
1.23385e+07
1.43561e+07
2.48202e+07
7.82322e+07
7.76023e+07
6.62627e+07
5.63742e+07
4.24409e+07
2.64486e+07
2.48457e+07
3.38659e+07
4.43275e+07
5.62174e+07
6.12724e+07
7.0367e+07
5.33387e+07
4.43977e+07
4.9708e+07
4.70291e+07
4.57424e+07
4.675e+07
4.82852e+07
4.76088e+07
4.58519e+07
4.55994e+07
5.15027e+07
4.59765e+07
5.35821e+07
7.2337e+07
6.09958e+07
5.16041e+07
4.28918e+07
3.3551e+07
2.59033e+07
2.04939e+07
2.59148e+07
3.39068e+07
4.54347e+07
5.33257e+07
6.7745e+07
8.99492e+07
1.0814e+08
6.99415e+07
5.42334e+07
5.41745e+07
5.55943e+07
5.68907e+07
5.69814e+07
5.57347e+07
5.42131e+07
6.94887e+07
1.04302e+08
8.88304e+07
6.81266e+07
5.28653e+07
4.25608e+07
3.19576e+07
2.48361e+07
2.02309e+07
1.5337e+07
1.99984e+07
3.08534e+07
4.45254e+07
4.9694e+07
5.88968e+07
8.31125e+07
9.45251e+07
5.3235e+07
3.76969e+07
3.58144e+07
3.65428e+07
3.72409e+07
3.71794e+07
3.68049e+07
3.84269e+07
5.27944e+07
8.66769e+07
7.8798e+07
6.03792e+07
5.15871e+07
4.38444e+07
2.95923e+07
1.92472e+07
1.49252e+07
1.24512e+07
1.86144e+07
3.12111e+07
4.79023e+07
4.93443e+07
4.66965e+07
5.78545e+07
6.69396e+07
4.96321e+07
3.44645e+07
2.86625e+07
2.74608e+07
2.75791e+07
2.7878e+07
2.89841e+07
3.3657e+07
4.65491e+07
6.23141e+07
5.63422e+07
4.81426e+07
5.14667e+07
4.8562e+07
3.07518e+07
1.87638e+07
1.23971e+07
1.16473e+07
1.8837e+07
3.47936e+07
4.54228e+07
4.2074e+07
3.75469e+07
4.24763e+07
5.03915e+07
4.45806e+07
3.26404e+07
2.48825e+07
2.1965e+07
2.15598e+07
2.24598e+07
2.53376e+07
3.18264e+07
4.16012e+07
4.7132e+07
4.17205e+07
3.86864e+07
4.32198e+07
4.46409e+07
3.2935e+07
1.98489e+07
1.23628e+07
1.57296e+07
4.645e+07
2.99629e+07
3.56903e+07
3.34556e+07
3.01719e+07
3.31223e+07
3.98619e+07
3.84735e+07
2.93859e+07
2.15351e+07
1.79176e+07
1.72759e+07
1.85986e+07
2.2289e+07
2.88815e+07
3.60697e+07
3.75664e+07
3.27267e+07
3.11173e+07
3.42482e+07
3.50117e+07
3.70868e+07
7.16289e+07
1.78195e+07
2.50599e+07
2.62089e+08
3.15445e+07
2.85222e+07
2.71916e+07
2.47166e+07
2.68924e+07
3.251e+07
3.26193e+07
2.54979e+07
1.84059e+07
1.4766e+07
1.40037e+07
1.54204e+07
1.90916e+07
2.50302e+07
3.06623e+07
3.09101e+07
2.67406e+07
2.54291e+07
2.76687e+07
2.81497e+07
3.8581e+07
2.97939e+08
4.24473e+07
6.20163e+07
2.03549e+08
2.96867e+07
2.37172e+07
2.23681e+07
2.06104e+07
2.23322e+07
2.68963e+07
2.73893e+07
2.16543e+07
1.55908e+07
1.22555e+07
1.14529e+07
1.27422e+07
1.60292e+07
2.11095e+07
2.57848e+07
2.57457e+07
2.22375e+07
2.11251e+07
2.25585e+07
2.34865e+07
3.24887e+07
1.9524e+08
8.05712e+07
6.41677e+07
1.44382e+08
2.57595e+07
2.01318e+07
1.86345e+07
1.74531e+07
1.8736e+07
2.23511e+07
2.28988e+07
1.80724e+07
1.29915e+07
1.01639e+07
9.46677e+06
1.06108e+07
1.34323e+07
1.76942e+07
2.16878e+07
2.15174e+07
1.86554e+07
1.78575e+07
1.88668e+07
2.01034e+07
2.6874e+07
1.34598e+08
7.20948e+07
5.8477e+07
1.08044e+08
2.22739e+07
1.74121e+07
1.58241e+07
1.4954e+07
1.595e+07
1.87106e+07
1.91667e+07
1.5161e+07
1.0931e+07
8.52794e+06
7.9198e+06
8.90257e+06
1.13232e+07
1.48974e+07
1.82403e+07
1.80801e+07
1.5859e+07
1.52419e+07
1.60668e+07
1.75022e+07
2.30835e+07
1.08806e+08
6.34189e+07
5.19689e+07
8.83292e+07
1.93459e+07
1.51818e+07
1.3661e+07
1.29489e+07
1.37247e+07
1.57993e+07
1.60523e+07
1.27531e+07
9.27857e+06
7.23594e+06
6.69722e+06
7.53438e+06
9.57281e+06
1.25063e+07
1.52692e+07
1.52644e+07
1.36139e+07
1.31074e+07
1.38357e+07
1.52874e+07
1.97517e+07
8.89933e+07
5.48182e+07
4.62792e+07
7.34136e+07
1.68859e+07
1.32935e+07
1.19024e+07
1.12856e+07
1.19291e+07
1.34094e+07
1.34093e+07
1.07159e+07
7.88868e+06
6.18476e+06
5.7276e+06
6.44987e+06
8.18862e+06
1.0621e+07
1.29099e+07
1.30211e+07
1.18085e+07
1.13993e+07
1.2091e+07
1.34986e+07
1.73836e+07
7.62044e+07
4.93136e+07
4.24322e+07
6.43985e+07
1.50968e+07
1.17254e+07
1.04921e+07
9.95713e+06
1.04452e+07
1.14826e+07
1.13092e+07
9.10419e+06
6.78157e+06
5.34434e+06
4.94882e+06
5.56373e+06
7.02769e+06
9.03249e+06
1.09157e+07
1.11575e+07
1.03285e+07
1.0025e+07
1.06314e+07
1.19185e+07
1.56058e+07
6.76187e+07
4.47519e+07
3.93072e+07
5.78545e+07
1.37278e+07
1.04298e+07
9.30893e+06
8.89475e+06
9.22102e+06
9.90527e+06
9.61753e+06
7.80372e+06
5.87482e+06
4.65605e+06
4.31512e+06
4.8299e+06
6.05543e+06
7.72139e+06
9.28694e+06
9.61803e+06
9.10299e+06
8.92488e+06
9.41716e+06
1.06147e+07
1.41284e+07
5.93107e+07
4.08252e+07
3.55079e+07
5.20342e+07
1.26576e+07
9.33683e+06
8.30929e+06
8.00708e+06
8.19965e+06
8.57422e+06
8.17968e+06
6.67298e+06
5.08631e+06
4.07868e+06
3.79507e+06
4.24151e+06
5.2842e+06
6.68877e+06
8.00419e+06
8.38096e+06
8.09744e+06
8.01917e+06
8.41106e+06
9.52778e+06
1.30963e+07
5.38809e+07
3.812e+07
3.24244e+07
4.62687e+07
1.1893e+07
8.50886e+06
7.4867e+06
7.20935e+06
7.33238e+06
7.50501e+06
7.0632e+06
5.79296e+06
4.45264e+06
3.60388e+06
3.3621e+06
3.73883e+06
4.61106e+06
5.80384e+06
6.93203e+06
7.34812e+06
7.23912e+06
7.20987e+06
7.55607e+06
8.6525e+06
1.2182e+07
4.81629e+07
3.45598e+07
2.9834e+07
4.15141e+07
1.13636e+07
7.86624e+06
6.79406e+06
6.52592e+06
6.58768e+06
6.62042e+06
6.15741e+06
5.06415e+06
3.92627e+06
3.20947e+06
3.00123e+06
3.32024e+06
4.04998e+06
5.06753e+06
6.05021e+06
6.49095e+06
6.50618e+06
6.5193e+06
6.85373e+06
7.96131e+06
1.15421e+07
4.26293e+07
3.14941e+07
2.72146e+07
3.63653e+07
1.08604e+07
7.38892e+06
6.23888e+06
5.92247e+06
5.92024e+06
5.85919e+06
5.38016e+06
4.43673e+06
3.46931e+06
2.87157e+06
2.69623e+06
2.97184e+06
3.58798e+06
4.47425e+06
5.33595e+06
5.7762e+06
5.85689e+06
5.91948e+06
6.27839e+06
7.43724e+06
1.10337e+07
3.80431e+07
2.90948e+07
2.544e+07
3.21408e+07
1.0257e+07
7.0954e+06
5.83246e+06
5.40367e+06
5.34065e+06
5.21699e+06
4.74513e+06
3.9226e+06
3.09628e+06
2.59036e+06
2.43859e+06
2.67393e+06
3.18835e+06
3.94746e+06
4.70969e+06
5.15405e+06
5.28876e+06
5.39735e+06
5.85148e+06
7.06593e+06
1.04925e+07
3.33866e+07
2.6811e+07
2.39817e+07
2.89245e+07
9.52513e+06
6.88553e+06
5.52276e+06
4.95051e+06
4.8319e+06
4.66508e+06
4.21402e+06
3.4953e+06
2.77937e+06
2.34966e+06
2.21832e+06
2.41884e+06
2.85006e+06
3.51023e+06
4.18661e+06
4.61272e+06
4.7866e+06
4.94442e+06
5.53486e+06
6.83207e+06
9.82194e+06
2.95843e+07
2.51803e+07
2.23382e+07
2.56914e+07
8.76131e+06
6.7723e+06
5.31963e+06
4.57726e+06
4.39212e+06
4.17639e+06
3.74115e+06
3.11218e+06
2.50288e+06
2.14269e+06
2.02941e+06
2.20542e+06
2.5688e+06
3.13689e+06
3.73738e+06
4.15243e+06
4.35999e+06
4.56888e+06
5.30403e+06
6.69995e+06
9.07691e+06
2.67315e+07
2.3815e+07
2.11587e+07
2.31727e+07
8.0588e+06
6.64718e+06
5.19702e+06
4.29354e+06
4.01317e+06
3.7604e+06
3.34618e+06
2.79929e+06
2.27011e+06
1.9647e+06
1.86491e+06
2.01675e+06
2.31995e+06
2.81261e+06
3.33814e+06
3.73684e+06
3.98247e+06
4.27738e+06
5.14357e+06
6.70814e+06
8.32808e+06
2.39754e+07
2.2205e+07
2.01585e+07
2.10418e+07
7.47736e+06
6.33889e+06
5.14425e+06
4.08003e+06
3.69665e+06
3.40622e+06
3.00792e+06
2.52539e+06
2.06853e+06
1.81124e+06
1.72198e+06
1.85527e+06
2.10729e+06
2.52915e+06
2.99337e+06
3.38314e+06
3.66694e+06
4.0673e+06
5.1253e+06
6.57229e+06
7.62512e+06
2.17756e+07
2.09905e+07
1.90694e+07
1.90318e+07
6.78803e+06
5.92328e+06
5.14792e+06
3.92851e+06
3.44025e+06
3.0969e+06
2.71086e+06
2.28485e+06
1.88838e+06
1.67344e+06
1.59461e+06
1.71343e+06
1.92451e+06
2.2931e+06
2.70239e+06
3.07986e+06
3.41129e+06
3.90415e+06
5.13144e+06
6.15565e+06
7.00447e+06
1.98987e+07
2.00397e+07
1.83538e+07
1.75526e+07
6.15373e+06
5.50622e+06
5.22396e+06
3.84723e+06
3.23987e+06
2.84399e+06
2.46368e+06
2.08121e+06
1.73417e+06
1.55385e+06
1.48131e+06
1.58746e+06
1.76268e+06
2.08269e+06
2.4494e+06
2.8241e+06
3.21156e+06
3.82116e+06
5.27105e+06
5.68089e+06
6.32771e+06
1.82682e+07
1.90859e+07
1.77796e+07
1.63802e+07
5.71177e+06
5.0803e+06
5.05717e+06
3.81267e+06
3.07142e+06
2.64536e+06
2.2585e+06
1.90552e+06
1.59857e+06
1.44584e+06
1.37874e+06
1.47317e+06
1.62128e+06
1.90316e+06
2.23872e+06
2.61975e+06
3.04956e+06
3.82774e+06
5.21335e+06
5.18016e+06
5.75786e+06
1.6977e+07
1.84024e+07
1.71087e+07
1.53582e+07
5.2408e+06
4.6351e+06
4.74848e+06
3.88175e+06
2.94506e+06
2.48061e+06
2.08825e+06
1.75168e+06
1.47805e+06
1.34801e+06
1.28624e+06
1.37293e+06
1.49948e+06
1.75511e+06
2.07204e+06
2.45332e+06
2.93972e+06
3.97324e+06
4.85609e+06
4.71428e+06
5.41627e+06
1.59229e+07
1.78731e+07
1.66146e+07
1.44928e+07
4.90085e+06
4.23195e+06
4.38844e+06
3.95842e+06
2.89698e+06
2.34559e+06
1.9586e+06
1.62679e+06
1.37348e+06
1.25845e+06
1.20134e+06
1.27993e+06
1.39138e+06
1.62654e+06
1.93828e+06
2.31677e+06
2.90628e+06
4.03111e+06
4.45715e+06
4.29897e+06
5.00168e+06
1.50053e+07
1.72544e+07
1.6227e+07
1.3688e+07
4.73893e+06
3.89297e+06
4.00668e+06
3.81435e+06
2.95728e+06
2.24925e+06
1.84358e+06
1.52618e+06
1.28595e+06
1.17978e+06
1.1279e+06
1.19866e+06
1.30147e+06
1.52494e+06
1.82595e+06
2.22038e+06
2.99274e+06
3.87109e+06
4.03437e+06
3.94926e+06
4.74685e+06
1.41701e+07
1.67998e+07
1.57988e+07
1.29665e+07
4.43956e+06
3.5896e+06
3.64597e+06
3.56067e+06
3.13081e+06
2.2161e+06
1.74868e+06
1.4449e+06
1.21821e+06
1.11055e+06
1.06008e+06
1.12795e+06
1.23068e+06
1.44644e+06
1.73871e+06
2.2094e+06
3.19726e+06
3.59696e+06
3.65267e+06
3.66195e+06
4.63594e+06
1.34285e+07
1.64313e+07
1.54926e+07
1.22754e+07
4.30095e+06
3.35412e+06
3.33782e+06
3.30007e+06
3.1518e+06
2.32939e+06
1.68824e+06
1.37459e+06
1.16334e+06
1.05698e+06
1.00417e+06
1.07286e+06
1.1731e+06
1.37585e+06
1.67896e+06
2.31524e+06
3.20363e+06
3.31567e+06
3.34341e+06
3.41373e+06
4.4442e+06
1.27394e+07
1.60835e+07
1.52062e+07
1.16711e+07
4.22504e+06
3.16504e+06
3.08318e+06
3.04077e+06
2.9432e+06
2.54459e+06
1.7214e+06
1.3194e+06
1.11172e+06
1.01102e+06
959097
1.02572e+06
1.12113e+06
1.32157e+06
1.70491e+06
2.54609e+06
2.99331e+06
3.05189e+06
3.08948e+06
3.20816e+06
4.30001e+06
1.21126e+07
1.57243e+07
1.47364e+07
1.10264e+07
4.06083e+06
2.99688e+06
2.8667e+06
2.80256e+06
2.73706e+06
2.58786e+06
1.88684e+06
1.29359e+06
1.06718e+06
968376
919963
982649
1.07795e+06
1.31251e+06
1.89531e+06
2.59672e+06
2.78043e+06
2.82687e+06
2.87985e+06
3.05136e+06
4.23164e+06
1.14718e+07
1.51996e+07
1.40264e+07
1.03171e+07
3.92627e+06
2.85188e+06
2.68222e+06
2.60068e+06
2.5324e+06
2.43142e+06
2.10504e+06
1.3694e+06
1.03958e+06
929563
884064
942821
1.04998e+06
1.39264e+06
2.10375e+06
2.44403e+06
2.57244e+06
2.63011e+06
2.70115e+06
2.89815e+06
4.06966e+06
1.07383e+07
1.44126e+07
1.2403e+07
9.3019e+06
3.78401e+06
2.71392e+06
2.52428e+06
2.42982e+06
2.34825e+06
2.2743e+06
2.13624e+06
1.58865e+06
1.06602e+06
902555
856065
914177
1.07548e+06
1.60634e+06
2.11957e+06
2.28748e+06
2.38507e+06
2.4604e+06
2.5441e+06
2.74677e+06
3.88593e+06
9.67265e+06
1.27499e+07
170315
281953
345048
364892
370021
360584
341836
327597
325564
326100
301902
274570
257338
250023
242951
234314
223905
216918
212507
208668
205159
203108
202407
200527
195569
188920
180868
169623
157600
173361
214515
290937
349687
375429
383308
376336
359377
340073
338551
344469
326588
290840
266721
252890
245327
236213
224648
216534
211533
207340
203547
201596
200888
199833
194971
187814
179152
167286
155197
172684
240099
301283
357481
385917
399125
392395
374846
347781
340578
349962
343754
305759
273237
253336
243761
234481
222968
214278
209029
204774
201107
199117
198208
197564
192908
185612
176696
164697
152966
172276
275468
317725
375771
408388
426479
422071
400260
367011
348500
355223
355250
322435
282856
257749
244620
233225
221739
211997
206320
201954
198314
196204
195101
194573
189994
182530
173410
161500
150356
171008
321601
340786
408092
444381
471763
467820
440546
397669
363587
360390
362334
342087
291809
261210
245571
232783
219583
209104
202986
198490
194833
192736
191587
190918
186399
178842
169638
157745
147023
168789
371640
373168
459303
504078
541466
537893
500349
440782
388126
368834
367422
357311
301004
263332
246373
233335
217241
206421
199434
194710
191107
189201
188106
187093
182492
174681
164934
152817
142511
164105
426587
417695
538896
603825
654348
648339
591756
504562
423694
381818
370933
363046
313357
265118
245953
233738
216760
203783
195579
190600
187164
185336
184102
182524
177608
169276
158736
146021
136060
157082
490600
479310
661873
765355
842737
830487
737690
602524
478956
404860
375915
365077
326988
268415
245292
233639
217124
200832
191466
185825
182053
179868
178067
175645
169798
161311
150773
138681
130066
151407
558381
562511
863067
1.04412e+06
1.18261e+06
1.14726e+06
987730
762044
567054
443645
387051
367128
341769
273357
246092
233351
217490
198821
187228
180251
175808
173021
170716
167480
162004
154133
144415
133515
126000
147314
625029
684179
1.20958e+06
1.55328e+06
1.82009e+06
1.70685e+06
1.43192e+06
1.02978e+06
708437
506992
408424
370767
348039
281031
246158
233789
218128
198044
183122
174595
169735
166739
164282
161050
155932
148428
139171
128963
122333
143388
699360
880296
1.81879e+06
2.51474e+06
2.86917e+06
2.58292e+06
2.18007e+06
1.46743e+06
933947
605979
443266
377893
350491
289054
245573
234826
220097
197563
179065
169356
164214
161184
158621
155294
150296
143086
134265
124674
118850
139580
792751
1.21533e+06
2.87118e+06
3.62748e+06
3.64467e+06
3.17843e+06
2.74809e+06
2.06484e+06
1.24543e+06
748037
495387
390103
351498
295649
244283
236914
223500
197898
176487
164755
159219
156194
153513
150032
145039
138063
129662
120654
115569
135892
922515
1.81163e+06
4.17208e+06
4.295e+06
3.93241e+06
3.2886e+06
2.98418e+06
2.45628e+06
1.56773e+06
914302
561940
406355
350966
298327
242287
235937
227702
199844
174656
160794
154844
151774
148908
145239
140194
133419
125397
116940
112510
132387
1.11343e+06
2.80156e+06
5.23228e+06
4.73761e+06
3.96198e+06
3.16359e+06
2.95579e+06
2.6341e+06
1.79811e+06
1.0531e+06
626806
422704
349706
297004
239704
232997
232330
204007
173526
157758
151225
147942
144796
140947
135819
129178
121469
113506
109642
129000
1.39496e+06
4.13601e+06
6.16876e+06
5.178e+06
4.04281e+06
3.11385e+06
2.81894e+06
2.76543e+06
1.87452e+06
1.12206e+06
659907
433014
346504
292175
237205
229046
240907
211642
174343
155796
148361
144657
141152
137130
131878
125297
117814
110260
106878
125562
1.79213e+06
5.56207e+06
7.19021e+06
5.76797e+06
4.23889e+06
3.14535e+06
2.63263e+06
2.80583e+06
1.90596e+06
1.12297e+06
652435
428686
340245
285212
235416
226716
245093
225560
178730
154957
146031
141841
137922
133677
128259
121643
114276
107027
104042
121864
2.32872e+06
7.0816e+06
8.43805e+06
6.46836e+06
4.49606e+06
3.14805e+06
2.43584e+06
2.54366e+06
1.80424e+06
1.03633e+06
609465
408926
331950
277740
234574
226294
243719
252689
190367
156228
144560
139318
135042
130505
124841
118132
110791
103778
101096
117954
3.05018e+06
8.79653e+06
9.97364e+06
7.2697e+06
4.80934e+06
3.17174e+06
2.37995e+06
2.3056e+06
1.69234e+06
910326
544075
385172
323333
270070
234998
228699
243309
270147
217013
162009
143789
137006
132375
127473
121491
114707
107417
100623
98190.1
114113
3.96838e+06
1.08268e+07
1.17705e+07
8.18042e+06
5.15288e+06
3.27669e+06
2.42911e+06
2.21147e+06
1.65275e+06
867993
504773
375481
317668
264997
237469
235013
246231
273006
271151
178803
144941
135395
129755
124504
118225
111432
104233
97672.4
95529.6
110481
5.14929e+06
1.33129e+07
1.37893e+07
9.24318e+06
5.61444e+06
3.51169e+06
2.54466e+06
2.21117e+06
1.62942e+06
903861
517969
383167
319171
266080
243370
243173
253330
275940
299216
220585
152045
134658
126991
121639
115187
108386
101262
94912.5
93125.5
106985
7.05162e+06
1.61868e+07
1.58986e+07
1.05432e+07
6.303e+06
3.86171e+06
2.74255e+06
2.27064e+06
1.69711e+06
969410
573619
413120
330942
273015
252357
252327
262099
278498
302333
295036
174817
136312
125438
118559
112382
105534
98462.6
92309.2
90826.2
103627
9.44323e+06
1.9741e+07
1.83772e+07
1.22722e+07
7.2846e+06
4.37065e+06
3.04459e+06
2.43468e+06
1.85264e+06
1.05979e+06
636197
445152
348302
289486
265808
263569
271490
283440
298383
318112
229329
145610
124981
115964
109384
102797
95902
89842.5
88587.8
100496
1.2947e+07
2.1804e+07
2.09927e+07
1.46469e+07
8.73798e+06
5.11548e+06
3.47209e+06
2.69313e+06
2.01112e+06
1.17817e+06
692525
473392
374090
317101
289559
279865
279806
286264
296573
313202
299416
170945
127802
114618
106570
100333
93750.9
87701
86587.2
97748.5
1.53071e+07
2.63169e+07
2.49309e+07
1.81542e+07
1.10388e+07
6.29896e+06
4.04629e+06
3.02921e+06
2.24579e+06
1.35627e+06
771690
521864
408160
348063
318244
302570
288998
288461
295041
301653
311441
227885
137703
114930
105275
97931.4
91913.5
85941.1
84882.5
95304.5
1.64236e+07
2.76126e+07
3.20229e+07
2.39861e+07
1.46337e+07
8.07364e+06
4.86397e+06
3.48921e+06
2.6325e+06
1.66559e+06
926321
597312
450217
381549
340477
321108
302857
293988
293557
295656
302258
281891
162532
118064
104797
96770.2
90066.4
84408.5
83450.2
93087.6
174508
158318
170432
181697
189649
196004
200343
201993
202783
204860
208181
211851
216317
223475
233953
242487
249472
257904
277234
306751
326133
323220
326347
341661
360274
369097
362978
342376
279842
173798
173888
155945
168120
179977
188495
195261
199437
200435
201214
203320
206899
210888
215953
224250
235762
244760
252294
268019
294933
334464
343497
335837
339634
359970
376471
383046
373468
347185
288974
218731
173488
153673
165479
177475
186214
193072
197055
197750
198723
200863
204370
208385
213672
222537
233877
242990
253706
275452
310709
346246
347274
338161
348821
377361
394692
401471
384898
356047
299761
244347
172142
150961
162178
174097
183037
190048
193981
194624
195828
198114
201575
205706
211430
221309
232830
244344
258565
286258
329114
355675
352123
348283
371689
405122
426257
429528
408367
375767
316902
279451
169834
147565
158356
170191
179243
186364
190268
191129
192348
194677
198140
202400
208633
219146
232551
245578
262505
296468
350636
361537
358194
365857
404386
447779
474366
476565
445770
409276
340880
325943
165111
142998
153352
165464
175038
182419
186441
187626
188774
190969
194471
198948
206101
217076
233242
246542
265250
307362
359992
365879
368465
393060
450796
511577
548829
551494
511554
464027
374353
376308
158009
136551
146591
159332
169689
177554
181931
183596
184884
186993
190447
195216
203594
217010
233734
246253
267757
321232
364004
369551
384205
432731
520027
610780
667546
672627
617160
547921
420808
431401
152347
130640
139320
151371
161669
169817
175191
177619
179421
181811
185670
191238
200701
217653
233735
245954
272034
336969
365684
376198
411046
494560
627190
770724
866829
876840
788687
678110
484795
496691
148130
126506
134096
145028
154576
162134
167325
170462
172749
175664
180166
187130
199191
218181
233543
247036
278715
347424
367941
390579
455622
592423
803164
1.04859e+06
1.21542e+06
1.24828e+06
1.08375e+06
891246
571479
561794
144074
122750
129439
139682
148792
156034
160931
164120
166592
169696
174651
183061
198647
219029
234035
247264
288411
351499
372535
416275
527897
751275
1.1024e+06
1.54472e+06
1.83625e+06
1.94535e+06
1.62899e+06
1.25663e+06
699708
628235
140138
119185
125047
134677
143382
150380
155222
158520
161106
164244
169533
179286
198379
221223
235301
246940
296948
353865
381998
457708
640743
1.00388e+06
1.58951e+06
2.32836e+06
2.72855e+06
3.01734e+06
2.64894e+06
1.89681e+06
908340
704168
136337
115822
120925
129980
138301
145117
149985
153444
156164
159284
165025
177006
199081
224621
236830
246078
304324
355222
397351
518487
800143
1.34437e+06
2.21063e+06
2.85611e+06
3.25597e+06
3.73809e+06
3.72344e+06
2.98841e+06
1.26619e+06
801300
132725
112689
117127
125635
133601
140269
145203
148843
151776
154937
161130
175417
201398
228528
234939
244430
306599
356032
417962
595125
981071
1.68341e+06
2.567e+06
3.04177e+06
3.30326e+06
3.99297e+06
4.3717e+06
4.26263e+06
1.89886e+06
938280
129243
109756
113621
121639
129315
135883
140921
144731
147940
151345
158189
174639
205875
232650
231725
242252
304969
355934
438801
666236
1.12876e+06
1.90431e+06
2.72096e+06
2.96115e+06
3.19281e+06
4.02652e+06
4.83746e+06
5.31526e+06
2.92559e+06
1.14251e+06
125718
106937
110318
117928
125389
131922
137102
141100
144628
148497
156333
175909
213565
240418
227778
239783
299641
353249
451965
700800
1.20042e+06
1.97798e+06
2.8698e+06
2.80212e+06
3.17497e+06
4.13622e+06
5.32194e+06
6.2682e+06
4.26779e+06
1.44325e+06
121936
104054
107031
114336
121689
128268
133644
137877
141755
146180
155664
180724
227017
241882
225312
237632
292201
346823
445571
689376
1.19189e+06
2.01539e+06
2.87382e+06
2.64882e+06
3.22904e+06
4.35786e+06
5.9597e+06
7.33107e+06
5.68122e+06
1.8642e+06
117939
101053
103719
110788
118127
124807
130467
134967
139188
144720
157199
192688
252293
239938
224702
235969
284009
337816
422649
640148
1.09335e+06
1.89962e+06
2.5732e+06
2.47565e+06
3.24305e+06
4.63823e+06
6.69706e+06
8.63438e+06
7.20019e+06
2.42411e+06
114039
98080.1
100509
107354
114675
121439
127439
132270
136896
143961
163370
219099
265162
238898
226906
235418
275536
328364
394671
565904
958536
1.78654e+06
2.33961e+06
2.42748e+06
3.26357e+06
4.96067e+06
7.52718e+06
1.02174e+07
8.92681e+06
3.17558e+06
110396
95354.6
97561.4
104169
111385
118174
124457
129643
135416
145371
180793
269930
266966
241838
232509
236955
268464
322249
382351
518909
922257
1.74173e+06
2.26684e+06
2.48662e+06
3.37352e+06
5.32422e+06
8.48095e+06
1.2047e+07
1.09648e+07
4.12055e+06
106927
92912.8
94827.9
101243
108343
115145
121562
126895
134736
153024
223239
291968
269021
248480
239805
242047
268009
323666
389570
533024
956045
1.71655e+06
2.27644e+06
2.61348e+06
3.62027e+06
5.81799e+06
9.6019e+06
1.40735e+07
1.34631e+07
5.32318e+06
103553
90620.2
92248.8
98490.9
105537
112386
118498
125388
136680
176579
291646
293995
271814
256949
248157
250272
274003
334993
418330
592472
1.01919e+06
1.79038e+06
2.34194e+06
2.8174e+06
3.98499e+06
6.526e+06
1.09705e+07
1.62075e+07
1.63052e+07
7.30697e+06
100309
88364.3
89763.4
95875.5
102792
109388
115965
125007
146587
232020
310106
290283
276760
266001
259261
263586
291352
353090
450306
657851
1.11607e+06
1.94683e+06
2.50585e+06
3.12488e+06
4.51087e+06
7.54905e+06
1.27457e+07
1.8741e+07
1.98327e+07
9.62571e+06
97470.1
86322.1
87547.5
93595.8
100132
106582
114651
128150
173044
295656
305041
289315
280004
274041
276135
288368
318901
379085
481668
717040
1.24268e+06
2.09347e+06
2.75516e+06
3.55913e+06
5.27899e+06
9.0338e+06
1.51615e+07
2.13759e+07
2.19122e+07
1.2993e+07
94989.6
84575
85722.9
91649.2
97719.3
105243
115043
138836
231210
304739
294407
288404
282941
284433
300492
316601
349224
412458
533480
800358
1.42685e+06
2.32317e+06
3.0935e+06
4.14762e+06
6.49818e+06
1.13981e+07
1.86992e+07
2.52167e+07
2.61557e+07
1.5253e+07
92758.5
83073.2
84153.8
89771
96585.4
104783
118504
165159
279390
295957
289566
287378
289098
299678
318715
339592
380811
453390
612539
965328
1.74656e+06
2.71543e+06
3.57196e+06
4.99872e+06
8.35465e+06
1.51387e+07
2.46582e+07
3.20591e+07
2.74224e+07
1.63443e+07
1.57058e+06
1.55342e+06
1.51053e+06
1.4752e+06
1.44021e+06
1.40514e+06
1.36812e+06
1.32848e+06
1.28789e+06
1.24445e+06
1.20105e+06
1.15559e+06
1.11063e+06
1.06469e+06
1.02022e+06
974640
929148
884047
839915
797043
756439
718358
682964
650260
620318
592890
567858
545107
524600
506203
489538
474445
460568
447382
434491
422228
410643
398880
387413
378134
371845
367400
360716
354842
353398
355848
359690
362943
364851
366394
367566
371795
384494
409267
447759
494578
530317
558420
577405
580649
570472
557610
547109
537145
525314
511858
497549
483059
471445
463468
456189
450075
444688
440248
435092
429872
425175
420391
415019
410294
406959
403325
397749
389766
379740
368227
355772
342993
330860
320399
312518
307566
305083
303697
302827
302420
302479
302934
303662
304245
303887
302043
298012
291824
283674
271799
255059
233409
208384
180295
147589
115676
96608.2
87619.2
83618.3
82230
81960.5
82655.6
83437.1
84087.5
84819.8
85899.8
87357.4
88968.4
90702.3
572347
569480
556793
547918
539120
531698
524830
517519
511333
504560
497680
490437
483149
475852
468867
463083
459204
456594
454063
453394
452346
453229
455591
460468
467965
478837
493205
510745
530916
553877
580624
613031
651703
693809
738174
781798
824844
867540
906710
935131
949771
956637
955448
945313
935570
923758
908701
888597
862315
834189
804909
790329
814665
862919
866178
842995
793685
736486
685927
641058
601667
567103
541864
526610
519550
517141
517256
517773
517120
517565
517491
515375
513537
509743
503985
495455
483832
469218
454984
440533
426221
413014
400871
389568
379113
369519
360703
352618
345389
339325
334118
329182
324152
319051
313619
307407
300095
291481
281423
270152
258239
246433
235297
224295
212742
202051
192927
185482
179443
175129
172115
166027
145152
113988
89291.1
78539.1
75102.5
75436.2
76923.4
77702.5
77908.2
78270.5
79220.5
80549.8
81753.2
489223
488610
480156
475889
472514
471868
473095
475984
481955
488753
497211
505856
515036
524826
534017
545884
556457
573112
593686
618427
649883
686854
731799
786748
857123
944750
1.05075e+06
1.17469e+06
1.31369e+06
1.46402e+06
1.61645e+06
1.76585e+06
1.92338e+06
2.08568e+06
2.23557e+06
2.37384e+06
2.48126e+06
2.56929e+06
2.64506e+06
2.71051e+06
2.76322e+06
2.80069e+06
2.82193e+06
2.8187e+06
2.79301e+06
2.75193e+06
2.69082e+06
2.61473e+06