/*--------------------------------*- C++ -*----------------------------------*\
| =========                 |                                                 |
| \\      /  F ield         | OpenFOAM: The Open Source CFD Toolbox           |
|  \\    /   O peration     | Version:  2112                                  |
|   \\  /    A nd           | Website:  www.openfoam.com                      |
|    \\/     M anipulation  |                                                 |
\*---------------------------------------------------------------------------*/
FoamFile
{
    version     2.0;
    format      ascii;
    arch        "LSB;label=32;scalar=64";
    class       volScalarField;
    location    "1e-05";
    object      alphat;
}
// * * * * * * * * * * * * * * * * * * * * * * * * * * * * * * * * * * * * * //

dimensions      [1 -1 -1 0 0 0 0];

internalField   nonuniform List<scalar> 
13875
(
0.109479
1.89509
1.99346
1.9959
1.9962
1.99619
1.99618
1.99616
1.99615
1.99614
1.99612
1.99611
1.99609
1.9961
1.99607
1.99605
1.99603
1.99601
1.99599
1.99597
1.99592
1.99555
1.99322
1.89494
0.109732
0.088341
1.35101
1.39866
1.40023
1.4002
1.40019
1.40017
1.40015
1.40013
1.40012
1.4001
1.40009
1.40009
1.4001
1.40009
1.40008
1.40007
1.40007
1.40007
1.40008
1.40008
1.40007
1.39853
1.35099
0.0884756
0.0681475
0.518877
0.534678
0.534915
0.534919
0.53492
0.53492
0.534917
0.534914
0.534911
0.534907
0.534905
0.534902
0.534899
0.534894
0.534891
0.534888
0.534884
0.534881
0.534877
0.534873
0.53486
0.534617
0.518822
0.0681505
0.0507286
0.298055
0.307262
0.307318
0.307318
0.307318
0.307318
0.307318
0.307318
0.307318
0.307318
0.307318
0.307318
0.307318
0.307318
0.307317
0.307317
0.307317
0.307317
0.307317
0.307317
0.307316
0.30726
0.298036
0.0507292
0.0500959
0.293982
0.303098
0.303154
0.303154
0.303154
0.303154
0.303154
0.303154
0.303154
0.303154
0.303154
0.303154
0.303154
0.303154
0.303154
0.303154
0.303154
0.303154
0.303154
0.303154
0.303154
0.303098
0.293969
0.0500953
0.0500274
0.293921
0.303064
0.30312
0.30312
0.30312
0.30312
0.30312
0.30312
0.30312
0.30312
0.30312
0.30312
0.30312
0.30312
0.30312
0.30312
0.30312
0.30312
0.30312
0.30312
0.30312
0.303064
0.293981
0.0500273
0.050036
0.293983
0.303064
0.303119
0.30312
0.30312
0.30312
0.30312
0.30312
0.30312
0.30312
0.30312
0.30312
0.30312
0.30312
0.30312
0.30312
0.30312
0.30312
0.30312
0.30312
0.303119
0.303062
0.293769
0.0500121
0.0501159
0.293707
0.303061
0.303119
0.30312
0.30312
0.30312
0.30312
0.30312
0.30312
0.30312
0.30312
0.30312
0.30312
0.30312
0.30312
0.30312
0.30312
0.30312
0.30312
0.30312
0.303119
0.303061
0.293698
0.0501313
0.0502346
0.293106
0.303056
0.303119
0.30312
0.30312
0.30312
0.30312
0.30312
0.30312
0.30312
0.30312
0.30312
0.30312
0.30312
0.30312
0.30312
0.30312
0.30312
0.30312
0.30312
0.303119
0.303056
0.2932
0.0502399
0.0465339
0.290116
0.302984
0.303119
0.30312
0.30312
0.30312
0.30312
0.30312
0.30312
0.30312
0.30312
0.30312
0.30312
0.30312
0.30312
0.30312
0.30312
0.30312
0.30312
0.30312
0.303119
0.302986
0.290176
0.0467035
0.0409904
0.285818
0.302841
0.303117
0.30312
0.30312
0.30312
0.30312
0.30312
0.30312
0.30312
0.30312
0.30312
0.30312
0.30312
0.30312
0.30312
0.30312
0.30312
0.30312
0.30312
0.303117
0.302819
0.285167
0.0404718
0.0371286
0.281547
0.302692
0.303115
0.30312
0.30312
0.30312
0.30312
0.30312
0.30312
0.30312
0.30312
0.30312
0.30312
0.30312
0.30312
0.30312
0.30312
0.30312
0.30312
0.30312
0.303115
0.302693
0.281658
0.0370553
0.0342353
0.277118
0.302538
0.303113
0.30312
0.30312
0.30312
0.30312
0.30312
0.30312
0.30312
0.30312
0.30312
0.30312
0.30312
0.30312
0.30312
0.30312
0.30312
0.30312
0.30312
0.303113
0.302561
0.277821
0.0343999
0.0321816
0.273362
0.302419
0.303111
0.30312
0.30312
0.30312
0.30312
0.30312
0.30312
0.30312
0.30312
0.30312
0.30312
0.30312
0.30312
0.30312
0.30312
0.30312
0.30312
0.30312
0.303112
0.302493
0.274742
0.0329739
0.0311435
0.270317
0.302364
0.30311
0.303119
0.30312
0.30312
0.30312
0.30312
0.30312
0.30312
0.30312
0.30312
0.30312
0.30312
0.30312
0.30312
0.30312
0.30312
0.30312
0.303119
0.303108
0.302272
0.268297
0.0306275
0.0287313
0.263819
0.302095
0.303104
0.303119
0.30312
0.30312
0.30312
0.30312
0.30312
0.30312
0.30312
0.30312
0.30312
0.30312
0.30312
0.30312
0.30312
0.30312
0.30312
0.303119
0.303102
0.302006
0.262475
0.0282167
0.0285841
0.264132
0.302251
0.303108
0.303119
0.30312
0.30312
0.30312
0.30312
0.30312
0.30312
0.30312
0.30312
0.30312
0.30312
0.30312
0.30312
0.30312
0.30312
0.30312
0.303119
0.303108
0.302278
0.264809
0.0286363
0.0287142
0.265474
0.302395
0.30311
0.303119
0.30312
0.30312
0.30312
0.30312
0.30312
0.30312
0.30312
0.30312
0.30312
0.30312
0.30312
0.30312
0.30312
0.30312
0.30312
0.303119
0.30311
0.302397
0.265379
0.0287702
0.0276901
0.256981
0.301971
0.303102
0.303119
0.30312
0.30312
0.30312
0.30312
0.30312
0.30312
0.30312
0.30312
0.30312
0.30312
0.30312
0.30312
0.30312
0.30312
0.30312
0.303119
0.303105
0.302091
0.259236
0.0281284
0.027127
0.25006
0.301447
0.303089
0.303119
0.30312
0.30312
0.30312
0.30312
0.30312
0.30312
0.30312
0.30312
0.30312
0.30312
0.30312
0.30312
0.30312
0.30312
0.30312
0.303119
0.303087
0.301384
0.249254
0.0268249
0.0300856
0.259015
0.30194
0.303101
0.303119
0.30312
0.30312
0.30312
0.30312
0.30312
0.30312
0.30312
0.30312
0.30312
0.30312
0.30312
0.30312
0.30312
0.30312
0.30312
0.303119
0.303098
0.301817
0.256777
0.0295419
0.0331913
0.267907
0.302346
0.303109
0.303119
0.30312
0.30312
0.30312
0.30312
0.30312
0.30312
0.30312
0.30312
0.30312
0.30312
0.30312
0.30312
0.30312
0.30312
0.30312
0.303119
0.303109
0.30232
0.267272
0.0331109
0.0363176
0.274902
0.302612
0.303114
0.30312
0.30312
0.30312
0.30312
0.30312
0.30312
0.30312
0.30312
0.30312
0.30312
0.30312
0.30312
0.30312
0.30312
0.30312
0.30312
0.30312
0.303114
0.302641
0.275751
0.0366663
0.0394367
0.280802
0.302793
0.303116
0.30312
0.30312
0.30312
0.30312
0.30312
0.30312
0.30312
0.30312
0.30312
0.30312
0.30312
0.30312
0.30312
0.30312
0.30312
0.30312
0.30312
0.303116
0.302789
0.280702
0.0393261
0.0414344
0.283635
0.302859
0.303117
0.30312
0.30312
0.30312
0.30312
0.30312
0.30312
0.30312
0.30312
0.30312
0.30312
0.30312
0.30312
0.30312
0.30312
0.30312
0.30312
0.30312
0.303117
0.302854
0.28342
0.041365
0.0436786
0.286097
0.302916
0.303118
0.30312
0.30312
0.30312
0.30312
0.30312
0.30312
0.30312
0.30312
0.30312
0.30312
0.30312
0.30312
0.30312
0.30312
0.30312
0.30312
0.30312
0.303118
0.302925
0.286494
0.0439033
0.0460686
0.28862
0.302966
0.303119
0.30312
0.30312
0.30312
0.30312
0.30312
0.30312
0.30312
0.30312
0.30312
0.30312
0.30312
0.30312
0.30312
0.30312
0.30312
0.30312
0.30312
0.303118
0.302958
0.288211
0.0457441
0.0478401
0.290051
0.302991
0.303119
0.30312
0.30312
0.30312
0.30312
0.30312
0.30312
0.30312
0.30312
0.30312
0.30312
0.30312
0.30312
0.30312
0.30312
0.30312
0.30312
0.30312
0.303119
0.302991
0.290032
0.0479425
0.0497995
0.291332
0.303013
0.303119
0.30312
0.30312
0.30312
0.30312
0.30312
0.30312
0.30312
0.30312
0.30312
0.30312
0.30312
0.30312
0.30312
0.30312
0.30312
0.30312
0.30312
0.303119
0.303022
0.291817
0.050149
0.0521604
0.293108
0.303042
0.303119
0.30312
0.30312
0.30312
0.30312
0.30312
0.30312
0.30312
0.30312
0.30312
0.30312
0.30312
0.30312
0.30312
0.30312
0.30312
0.30312
0.30312
0.303119
0.303035
0.292676
0.0517051
0.0535937
0.293926
0.303052
0.303119
0.30312
0.30312
0.30312
0.30312
0.30312
0.30312
0.30312
0.30312
0.30312
0.30312
0.30312
0.30312
0.30312
0.30312
0.30312
0.30312
0.30312
0.303119
0.303054
0.293972
0.0537672
0.0550453
0.29452
0.30306
0.303119
0.30312
0.30312
0.30312
0.30312
0.30312
0.30312
0.30312
0.30312
0.30312
0.30312
0.30312
0.30312
0.30312
0.30312
0.30312
0.30312
0.30312
0.303119
0.303063
0.294788
0.0552625
0.0569017
0.295551
0.303073
0.303119
0.30312
0.30312
0.30312
0.30312
0.30312
0.30312
0.30312
0.30312
0.30312
0.30312
0.30312
0.30312
0.30312
0.30312
0.30312
0.30312
0.30312
0.303119
0.30307
0.295322
0.0566312
0.0580422
0.296035
0.303078
0.303119
0.30312
0.30312
0.30312
0.30312
0.30312
0.30312
0.30312
0.30312
0.30312
0.30312
0.30312
0.30312
0.30312
0.30312
0.30312
0.30312
0.30312
0.303119
0.303079
0.296103
0.0582022
0.0591552
0.296345
0.303081
0.303119
0.30312
0.30312
0.30312
0.30312
0.30312
0.30312
0.30312
0.30312
0.30312
0.30312
0.30312
0.30312
0.30312
0.30312
0.30312
0.30312
0.30312
0.303119
0.303083
0.296522
0.0592897
0.060625
0.297013
0.303088
0.303119
0.30312
0.30312
0.30312
0.30312
0.30312
0.30312
0.30312
0.30312
0.30312
0.30312
0.30312
0.30312
0.30312
0.30312
0.30312
0.30312
0.30312
0.303119
0.303086
0.296808
0.0603737
0.0615369
0.297323
0.303091
0.303119
0.30312
0.30312
0.30312
0.30312
0.30312
0.30312
0.30312
0.30312
0.30312
0.30312
0.30312
0.30312
0.30312
0.30312
0.30312
0.30312
0.30312
0.303119
0.303092
0.297363
0.0616589
0.0624111
0.297505
0.303093
0.303119
0.30312
0.30312
0.30312
0.30312
0.30312
0.30312
0.30312
0.30312
0.30312
0.30312
0.30312
0.30312
0.30312
0.30312
0.30312
0.30312
0.30312
0.30312
0.303094
0.297645
0.0625158
0.0635381
0.297964
0.303097
0.30312
0.30312
0.30312
0.30312
0.30312
0.30312
0.30312
0.30312
0.30312
0.30312
0.30312
0.30312
0.30312
0.30312
0.30312
0.30312
0.30312
0.30312
0.30312
0.303095
0.297796
0.0633363
0.0642379
0.298169
0.303099
0.30312
0.30312
0.30312
0.30312
0.30312
0.30312
0.30312
0.30312
0.30312
0.30312
0.30312
0.30312
0.30312
0.30312
0.30312
0.30312
0.30312
0.30312
0.30312
0.303099
0.298196
0.0643295
0.0648928
0.298271
0.303099
0.30312
0.30312
0.30312
0.30312
0.30312
0.30312
0.30312
0.30312
0.30312
0.30312
0.30312
0.30312
0.30312
0.30312
0.30312
0.30312
0.30312
0.30312
0.30312
0.3031
0.298391
0.064976
0.0657197
0.298598
0.303102
0.30312
0.30312
0.30312
0.30312
0.30312
0.30312
0.30312
0.30312
0.30312
0.30312
0.30312
0.30312
0.30312
0.30312
0.30312
0.30312
0.30312
0.30312
0.30312
0.303101
0.298467
0.0655756
0.0662268
0.298737
0.303103
0.30312
0.30312
0.30312
0.30312
0.30312
0.30312
0.30312
0.30312
0.30312
0.30312
0.30312
0.30312
0.30312
0.30312
0.30312
0.30312
0.30312
0.30312
0.30312
0.303103
0.29875
0.0662846
0.0666874
0.298788
0.303103
0.30312
0.30312
0.30312
0.30312
0.30312
0.30312
0.30312
0.30312
0.30312
0.30312
0.30312
0.30312
0.30312
0.30312
0.30312
0.30312
0.30312
0.30312
0.30312
0.303104
0.298888
0.0667476
0.0672486
0.299023
0.303105
0.30312
0.30312
0.30312
0.30312
0.30312
0.30312
0.30312
0.30312
0.30312
0.30312
0.30312
0.30312
0.30312
0.30312
0.30312
0.30312
0.30312
0.30312
0.30312
0.303104
0.298928
0.0671622
0.0675836
0.299116
0.303106
0.30312
0.30312
0.30312
0.30312
0.30312
0.30312
0.30312
0.30312
0.30312
0.30312
0.30312
0.30312
0.30312
0.30312
0.30312
0.30312
0.30312
0.30312
0.30312
0.303106
0.299116
0.0676117
0.0678768
0.299134
0.303106
0.30312
0.30312
0.30312
0.30312
0.30312
0.30312
0.30312
0.30312
0.30312
0.30312
0.30312
0.30312
0.30312
0.30312
0.30312
0.30312
0.30312
0.30312
0.30312
0.303106
0.299216
0.0679146
0.0682112
0.299302
0.303107
0.30312
0.30312
0.30312
0.30312
0.30312
0.30312
0.30312
0.30312
0.30312
0.30312
0.30312
0.30312
0.30312
0.30312
0.30312
0.30312
0.30312
0.30312
0.30312
0.303106
0.299237
0.0681663
0.0684012
0.299362
0.303107
0.30312
0.30312
0.30312
0.30312
0.30312
0.30312
0.30312
0.30312
0.30312
0.30312
0.30312
0.30312
0.30312
0.30312
0.30312
0.30312
0.30312
0.30312
0.30312
0.303107
0.299343
0.0684042
0.0685626
0.299364
0.303107
0.30312
0.30312
0.30312
0.30312
0.30312
0.30312
0.30312
0.30312
0.30312
0.30312
0.30312
0.30312
0.30312
0.30312
0.30312
0.30312
0.30312
0.30312
0.30312
0.303107
0.299393
0.0685729
0.138998
0.30241
0.30312
0.303122
0.303122
0.303122
0.303122
0.303122
0.303122
0.303122
0.303122
0.303122
0.303122
0.303122
0.303122
0.303121
0.303121
0.303121
0.303121
0.303121
0.303121
0.303121
0.303121
0.303121
0.303121
0.303121
0.303121
0.303121
0.302893
0.157636
0.131448
0.30269
0.303118
0.30312
0.30312
0.30312
0.30312
0.30312
0.30312
0.30312
0.30312
0.30312
0.30312
0.30312
0.30312
0.30312
0.30312
0.30312
0.30312
0.30312
0.30312
0.30312
0.30312
0.30312
0.30312
0.30312
0.30312
0.303119
0.302873
0.156047
0.137534
0.302806
0.303118
0.30312
0.30312
0.30312
0.30312
0.30312
0.30312
0.30312
0.30312
0.30312
0.30312
0.30312
0.30312
0.30312
0.30312
0.30312
0.30312
0.30312
0.30312
0.30312
0.30312
0.30312
0.30312
0.30312
0.30312
0.303119
0.302864
0.154565
0.141054
0.302802
0.303119
0.30312
0.30312
0.30312
0.30312
0.30312
0.30312
0.30312
0.30312
0.30312
0.30312
0.30312
0.30312
0.30312
0.30312
0.30312
0.30312
0.30312
0.30312
0.30312
0.30312
0.30312
0.30312
0.30312
0.30312
0.303119
0.302858
0.153309
0.140883
0.302782
0.303119
0.30312
0.30312
0.30312
0.30312
0.30312
0.30312
0.30312
0.30312
0.30312
0.30312
0.30312
0.30312
0.30312
0.30312
0.30312
0.30312
0.30312
0.30312
0.30312
0.30312
0.30312
0.30312
0.30312
0.30312
0.303119
0.302851
0.152166
0.140588
0.30278
0.303119
0.30312
0.30312
0.30312
0.30312
0.30312
0.30312
0.30312
0.30312
0.30312
0.30312
0.30312
0.30312
0.30312
0.30312
0.30312
0.30312
0.30312
0.30312
0.30312
0.30312
0.30312
0.30312
0.30312
0.30312
0.303119
0.302844
0.151074
0.140626
0.302783
0.303119
0.30312
0.30312
0.30312
0.30312
0.30312
0.30312
0.30312
0.30312
0.30312
0.30312
0.30312
0.30312
0.30312
0.30312
0.30312
0.30312
0.30312
0.30312
0.30312
0.30312
0.30312
0.30312
0.30312
0.30312
0.303119
0.302838
0.150041
0.141038
0.302788
0.303119
0.30312
0.30312
0.30312
0.30312
0.30312
0.30312
0.30312
0.30312
0.30312
0.30312
0.30312
0.30312
0.30312
0.30312
0.30312
0.30312
0.30312
0.30312
0.30312
0.30312
0.30312
0.30312
0.30312
0.30312
0.303119
0.302832
0.149084
0.141456
0.30279
0.303119
0.30312
0.30312
0.30312
0.30312
0.30312
0.30312
0.30312
0.30312
0.30312
0.30312
0.30312
0.30312
0.30312
0.30312
0.30312
0.30312
0.30312
0.30312
0.30312
0.30312
0.30312
0.30312
0.30312
0.30312
0.303119
0.302826
0.148215
0.141729
0.30279
0.303119
0.30312
0.30312
0.30312
0.30312
0.30312
0.30312
0.30312
0.30312
0.30312
0.30312
0.30312
0.30312
0.30312
0.30312
0.30312
0.30312
0.30312
0.30312
0.30312
0.30312
0.30312
0.30312
0.30312
0.30312
0.303119
0.302821
0.14743
0.141835
0.302789
0.303119
0.30312
0.30312
0.30312
0.30312
0.30312
0.30312
0.30312
0.30312
0.30312
0.30312
0.30312
0.30312
0.30312
0.30312
0.30312
0.30312
0.30312
0.30312
0.30312
0.30312
0.30312
0.30312
0.30312
0.30312
0.303119
0.302816
0.146717
0.141835
0.302788
0.303119
0.30312
0.30312
0.30312
0.30312
0.30312
0.30312
0.30312
0.30312
0.30312
0.30312
0.30312
0.30312
0.30312
0.30312
0.30312
0.30312
0.30312
0.30312
0.30312
0.30312
0.30312
0.30312
0.30312
0.30312
0.303119
0.302811
0.146068
0.141809
0.302787
0.303119
0.30312
0.30312
0.30312
0.30312
0.30312
0.30312
0.30312
0.30312
0.30312
0.30312
0.30312
0.30312
0.30312
0.30312
0.30312
0.30312
0.30312
0.30312
0.30312
0.30312
0.30312
0.30312
0.30312
0.30312
0.303119
0.302807
0.145477
0.141738
0.302786
0.303119
0.30312
0.30312
0.30312
0.30312
0.30312
0.30312
0.30312
0.30312
0.30312
0.30312
0.30312
0.30312
0.30312
0.30312
0.30312
0.30312
0.30312
0.30312
0.30312
0.30312
0.30312
0.30312
0.30312
0.30312
0.303119
0.302803
0.144938
0.141756
0.302786
0.303119
0.30312
0.30312
0.30312
0.30312
0.30312
0.30312
0.30312
0.30312
0.30312
0.30312
0.30312
0.30312
0.30312
0.30312
0.30312
0.30312
0.30312
0.30312
0.30312
0.30312
0.30312
0.30312
0.30312
0.30312
0.303119
0.3028
0.144452
0.141693
0.302784
0.303119
0.30312
0.30312
0.30312
0.30312
0.30312
0.30312
0.30312
0.30312
0.30312
0.30312
0.30312
0.30312
0.30312
0.30312
0.30312
0.30312
0.30312
0.30312
0.30312
0.30312
0.30312
0.30312
0.30312
0.30312
0.303119
0.302797
0.144016
0.141667
0.302784
0.303119
0.30312
0.30312
0.30312
0.30312
0.30312
0.30312
0.30312
0.30312
0.30312
0.30312
0.30312
0.30312
0.30312
0.30312
0.30312
0.30312
0.30312
0.30312
0.30312
0.30312
0.30312
0.30312
0.30312
0.30312
0.303119
0.302794
0.143626
0.141673
0.302784
0.303119
0.30312
0.30312
0.30312
0.30312
0.30312
0.30312
0.30312
0.30312
0.30312
0.30312
0.30312
0.30312
0.30312
0.30312
0.30312
0.30312
0.30312
0.30312
0.30312
0.30312
0.30312
0.30312
0.30312
0.30312
0.303119
0.302791
0.143284
0.141642
0.302783
0.303119
0.30312
0.30312
0.30312
0.30312
0.30312
0.30312
0.30312
0.30312
0.30312
0.30312
0.30312
0.30312
0.30312
0.30312
0.30312
0.30312
0.30312
0.30312
0.30312
0.30312
0.30312
0.30312
0.30312
0.30312
0.303119
0.302789
0.142984
0.141657
0.302783
0.303119
0.30312
0.30312
0.30312
0.30312
0.30312
0.30312
0.30312
0.30312
0.30312
0.30312
0.30312
0.30312
0.30312
0.30312
0.30312
0.30312
0.30312
0.30312
0.30312
0.30312
0.30312
0.30312
0.30312
0.30312
0.303119
0.302787
0.142725
0.141679
0.302783
0.303119
0.30312
0.30312
0.30312
0.30312
0.30312
0.30312
0.30312
0.30312
0.30312
0.30312
0.30312
0.30312
0.30312
0.30312
0.30312
0.30312
0.30312
0.30312
0.30312
0.30312
0.30312
0.30312
0.30312
0.30312
0.303119
0.302786
0.142507
0.141691
0.302783
0.303119
0.30312
0.30312
0.30312
0.30312
0.30312
0.30312
0.30312
0.30312
0.30312
0.30312
0.30312
0.30312
0.30312
0.30312
0.30312
0.30312
0.30312
0.30312
0.30312
0.30312
0.30312
0.30312
0.30312
0.30312
0.303119
0.302784
0.142325
0.14175
0.302783
0.303119
0.30312
0.30312
0.30312
0.30312
0.30312
0.30312
0.30312
0.30312
0.30312
0.30312
0.30312
0.30312
0.30312
0.30312
0.30312
0.30312
0.30312
0.30312
0.30312
0.30312
0.30312
0.30312
0.30312
0.30312
0.303119
0.302784
0.142178
0.141803
0.302783
0.303119
0.30312
0.30312
0.30312
0.30312
0.30312
0.30312
0.30312
0.30312
0.30312
0.30312
0.30312
0.30312
0.30312
0.30312
0.30312
0.30312
0.30312
0.30312
0.30312
0.30312
0.30312
0.30312
0.30312
0.30312
0.303119
0.302783
0.142065
0.141862
0.302812
0.303119
0.30312
0.30312
0.30312
0.30312
0.30312
0.30312
0.30312
0.30312
0.30312
0.30312
0.30312
0.30312
0.30312
0.30312
0.30312
0.30312
0.30312
0.30312
0.30312
0.30312
0.30312
0.30312
0.30312
0.30312
0.303119
0.302782
0.141982
0.157636
0.302893
0.303121
0.303121
0.303121
0.303121
0.303121
0.303121
0.303121
0.303121
0.303121
0.303121
0.303121
0.303121
0.303121
0.303122
0.303122
0.303122
0.303122
0.303122
0.303122
0.303122
0.303122
0.303122
0.303122
0.303122
0.303122
0.30312
0.30241
0.138961
0.156047
0.302873
0.303119
0.30312
0.30312
0.30312
0.30312
0.30312
0.30312
0.30312
0.30312
0.30312
0.30312
0.30312
0.30312
0.30312
0.30312
0.30312
0.30312
0.30312
0.30312
0.30312
0.30312
0.30312
0.30312
0.30312
0.30312
0.303118
0.30269
0.131466
0.154563
0.302864
0.303119
0.30312
0.30312
0.30312
0.30312
0.30312
0.30312
0.30312
0.30312
0.30312
0.30312
0.30312
0.30312
0.30312
0.30312
0.30312
0.30312
0.30312
0.30312
0.30312
0.30312
0.30312
0.30312
0.30312
0.30312
0.303118
0.302806
0.137503
0.153308
0.302858
0.303119
0.30312
0.30312
0.30312
0.30312
0.30312
0.30312
0.30312
0.30312
0.30312
0.30312
0.30312
0.30312
0.30312
0.30312
0.30312
0.30312
0.30312
0.30312
0.30312
0.30312
0.30312
0.30312
0.30312
0.30312
0.303119
0.302802
0.1411
0.152167
0.302851
0.303119
0.30312
0.30312
0.30312
0.30312
0.30312
0.30312
0.30312
0.30312
0.30312
0.30312
0.30312
0.30312
0.30312
0.30312
0.30312
0.30312
0.30312
0.30312
0.30312
0.30312
0.30312
0.30312
0.30312
0.30312
0.303119
0.302781
0.140901
0.151073
0.302844
0.303119
0.30312
0.30312
0.30312
0.30312
0.30312
0.30312
0.30312
0.30312
0.30312
0.30312
0.30312
0.30312
0.30312
0.30312
0.30312
0.30312
0.30312
0.30312
0.30312
0.30312
0.30312
0.30312
0.30312
0.30312
0.303119
0.302779
0.140524
0.150041
0.302838
0.303119
0.30312
0.30312
0.30312
0.30312
0.30312
0.30312
0.30312
0.30312
0.30312
0.30312
0.30312
0.30312
0.30312
0.30312
0.30312
0.30312
0.30312
0.30312
0.30312
0.30312
0.30312
0.30312
0.30312
0.30312
0.303119
0.302784
0.140711
0.149085
0.302832
0.303119
0.30312
0.30312
0.30312
0.30312
0.30312
0.30312
0.30312
0.30312
0.30312
0.30312
0.30312
0.30312
0.30312
0.30312
0.30312
0.30312
0.30312
0.30312
0.30312
0.30312
0.30312
0.30312
0.30312
0.30312
0.303119
0.302787
0.140991
0.148215
0.302826
0.303119
0.30312
0.30312
0.30312
0.30312
0.30312
0.30312
0.30312
0.30312
0.30312
0.30312
0.30312
0.30312
0.30312
0.30312
0.30312
0.30312
0.30312
0.30312
0.30312
0.30312
0.30312
0.30312
0.30312
0.30312
0.303119
0.30279
0.141462
0.14743
0.302821
0.303119
0.30312
0.30312
0.30312
0.30312
0.30312
0.30312
0.30312
0.30312
0.30312
0.30312
0.30312
0.30312
0.30312
0.30312
0.30312
0.30312
0.30312
0.30312
0.30312
0.30312
0.30312
0.30312
0.30312
0.30312
0.303119
0.30279
0.141749
0.146717
0.302816
0.303119
0.30312
0.30312
0.30312
0.30312
0.30312
0.30312
0.30312
0.30312
0.30312
0.30312
0.30312
0.30312
0.30312
0.30312
0.30312
0.30312
0.30312
0.30312
0.30312
0.30312
0.30312
0.30312
0.30312
0.30312
0.303119
0.302789
0.141788
0.146068
0.302811
0.303119
0.30312
0.30312
0.30312
0.30312
0.30312
0.30312
0.30312
0.30312
0.30312
0.30312
0.30312
0.30312
0.30312
0.30312
0.30312
0.30312
0.30312
0.30312
0.30312
0.30312
0.30312
0.30312
0.30312
0.30312
0.303119
0.302788
0.141873
0.145477
0.302807
0.303119
0.30312
0.30312
0.30312
0.30312
0.30312
0.30312
0.30312
0.30312
0.30312
0.30312
0.30312
0.30312
0.30312
0.30312
0.30312
0.30312
0.30312
0.30312
0.30312
0.30312
0.30312
0.30312
0.30312
0.30312
0.303119
0.302786
0.141803
0.144938
0.302803
0.303119
0.30312
0.30312
0.30312
0.30312
0.30312
0.30312
0.30312
0.30312
0.30312
0.30312
0.30312
0.30312
0.30312
0.30312
0.30312
0.30312
0.30312
0.30312
0.30312
0.30312
0.30312
0.30312
0.30312
0.30312
0.303119
0.302786
0.141733
0.144451
0.3028
0.303119
0.30312
0.30312
0.30312
0.30312
0.30312
0.30312
0.30312
0.30312
0.30312
0.30312
0.30312
0.30312
0.30312
0.30312
0.30312
0.30312
0.30312
0.30312
0.30312
0.30312
0.30312
0.30312
0.30312
0.30312
0.303119
0.302786
0.141753
0.144016
0.302797
0.303119
0.30312
0.30312
0.30312
0.30312
0.30312
0.30312
0.30312
0.30312
0.30312
0.30312
0.30312
0.30312
0.30312
0.30312
0.30312
0.30312
0.30312
0.30312
0.30312
0.30312
0.30312
0.30312
0.30312
0.30312
0.303119
0.302785
0.141705
0.143626
0.302794
0.303119
0.30312
0.30312
0.30312
0.30312
0.30312
0.30312
0.30312
0.30312
0.30312
0.30312
0.30312
0.30312
0.30312
0.30312
0.30312
0.30312
0.30312
0.30312
0.30312
0.30312
0.30312
0.30312
0.30312
0.30312
0.303119
0.302784
0.141656
0.143283
0.302791
0.303119
0.30312
0.30312
0.30312
0.30312
0.30312
0.30312
0.30312
0.30312
0.30312
0.30312
0.30312
0.30312
0.30312
0.30312
0.30312
0.30312
0.30312
0.30312
0.30312
0.30312
0.30312
0.30312
0.30312
0.30312
0.303119
0.302784
0.14167
0.142984
0.302789
0.303119
0.30312
0.30312
0.30312
0.30312
0.30312
0.30312
0.30312
0.30312
0.30312
0.30312
0.30312
0.30312
0.30312
0.30312
0.30312
0.30312
0.30312
0.30312
0.30312
0.30312
0.30312
0.30312
0.30312
0.30312
0.303119
0.302783
0.141658
0.142726
0.302787
0.303119
0.30312
0.30312
0.30312
0.30312
0.30312
0.30312
0.30312
0.30312
0.30312
0.30312
0.30312
0.30312
0.30312
0.30312
0.30312
0.30312
0.30312
0.30312
0.30312
0.30312
0.30312
0.30312
0.30312
0.30312
0.303119
0.302783
0.141644
0.142506
0.302786
0.303119
0.30312
0.30312
0.30312
0.30312
0.30312
0.30312
0.30312
0.30312
0.30312
0.30312
0.30312
0.30312
0.30312
0.30312
0.30312
0.30312
0.30312
0.30312
0.30312
0.30312
0.30312
0.30312
0.30312
0.30312
0.303119
0.302783
0.141677
0.142325
0.302785
0.303119
0.30312
0.30312
0.30312
0.30312
0.30312
0.30312
0.30312
0.30312
0.30312
0.30312
0.30312
0.30312
0.30312
0.30312
0.30312
0.30312
0.30312
0.30312
0.30312
0.30312
0.30312
0.30312
0.30312
0.30312
0.303119
0.302783
0.141707
0.142178
0.302783
0.303119
0.30312
0.30312
0.30312
0.30312
0.30312
0.30312
0.30312
0.30312
0.30312
0.30312
0.30312
0.30312
0.30312
0.30312
0.30312
0.30312
0.30312
0.30312
0.30312
0.30312
0.30312
0.30312
0.30312
0.30312
0.303119
0.302783
0.141737
0.142065
0.302783
0.303119
0.30312
0.30312
0.30312
0.30312
0.30312
0.30312
0.30312
0.30312
0.30312
0.30312
0.30312
0.30312
0.30312
0.30312
0.30312
0.30312
0.30312
0.30312
0.30312
0.30312
0.30312
0.30312
0.30312
0.30312
0.303119
0.302783
0.141804
0.141982
0.302782
0.303119
0.30312
0.30312
0.30312
0.30312
0.30312
0.30312
0.30312
0.30312
0.30312
0.30312
0.30312
0.30312
0.30312
0.30312
0.30312
0.30312
0.30312
0.30312
0.30312
0.30312
0.30312
0.30312
0.30312
0.30312
0.303119
0.302812
0.141864
0.115875
0.116085
0.116296
0.116506
0.116717
0.116927
0.117137
0.117348
0.117558
0.117769
0.117979
0.118189
0.1184
0.11861
0.118821
0.119031
0.119242
0.119452
0.119662
0.119873
0.120083
0.120294
0.120504
0.120715
0.120925
0.121135
0.121346
0.121556
0.121767
0.121977
0.122187
0.122398
0.122608
0.122819
0.123029
0.12324
0.12345
0.12366
0.123871
0.124081
0.124292
0.124502
0.124712
0.124923
0.125133
0.125344
0.125554
0.125765
0.125975
0.126185
0.126396
0.126606
0.126817
0.127027
0.127237
0.127448
0.127658
0.127869
0.128079
0.12829
0.1285
0.12871
0.128921
0.129131
0.129342
0.129552
0.129763
0.129973
0.130183
0.130394
0.130604
0.130815
0.131025
0.131235
0.131446
0.131656
0.131867
0.132077
0.132288
0.132498
0.132708
0.132919
0.133129
0.13334
0.13355
0.13376
0.133971
0.134181
0.134392
0.134602
0.134813
0.135023
0.135233
0.135444
0.135654
0.135865
0.136075
0.136285
0.136496
0.136706
0.136917
0.137127
0.137338
0.137548
0.137758
0.137969
0.138179
0.13839
0.1386
0.138811
0.139021
0.139231
0.139442
0.139652
0.139863
0.140073
0.140283
0.140494
0.140704
0.140915
0.141125
0.141336
0.141546
0.141756
0.141967
0.302434
0.30244
0.302444
0.302448
0.302452
0.302456
0.30246
0.302464
0.302468
0.302472
0.302476
0.30248
0.302484
0.302487
0.302491
0.302495
0.302499
0.302502
0.302506
0.30251
0.302513
0.302517
0.30252
0.302524
0.302527
0.302531
0.302534
0.302538
0.302541
0.302544
0.302548
0.302551
0.302554
0.302558
0.302561
0.302564
0.302567
0.302571
0.302574
0.302577
0.30258
0.302583
0.302586
0.302589
0.302592
0.302595
0.302598
0.302601
0.302604
0.302607
0.30261
0.302613
0.302616
0.302619
0.302622
0.302625
0.302627
0.30263
0.302633
0.302636
0.302638
0.302641
0.302644
0.302646
0.302649
0.302652
0.302654
0.302657
0.30266
0.302662
0.302665
0.302667
0.30267
0.302672
0.302675
0.302677
0.30268
0.302682
0.302684
0.302687
0.302689
0.302692
0.302694
0.302696
0.302699
0.302701
0.302703
0.302706
0.302708
0.30271
0.302712
0.302715
0.302717
0.302719
0.302721
0.302723
0.302725
0.302728
0.30273
0.302732
0.302734
0.302736
0.302738
0.30274
0.302742
0.302744
0.302746
0.302748
0.30275
0.302752
0.302754
0.302756
0.302758
0.30276
0.302762
0.302764
0.302766
0.302768
0.302769
0.302771
0.302773
0.302775
0.302777
0.302779
0.302781
0.303119
0.303119
0.303119
0.303119
0.303119
0.303119
0.303119
0.303119
0.303119
0.303119
0.303119
0.303119
0.303119
0.303119
0.303119
0.303119
0.303119
0.303119
0.303119
0.303119
0.303119
0.303119
0.303119
0.303119
0.303119
0.303119
0.303119
0.303119
0.303119
0.303119
0.303119
0.303119
0.303119
0.303119
0.303119
0.303119
0.303119
0.303119
0.303119
0.303119
0.303119
0.303119
0.303119
0.303119
0.303119
0.303119
0.303119
0.303119
0.303119
0.303119
0.303119
0.303119
0.303119
0.303119
0.303119
0.303119
0.303119
0.303119
0.303119
0.303119
0.303119
0.303119
0.303119
0.303119
0.303119
0.303119
0.303119
0.303119
0.303119
0.303119
0.303119
0.303119
0.303119
0.303119
0.303119
0.303119
0.303119
0.303119
0.303119
0.303119
0.303119
0.303119
0.303119
0.303119
0.303119
0.303119
0.303119
0.303119
0.303119
0.303119
0.303119
0.303119
0.303119
0.303119
0.303119
0.303119
0.303119
0.303119
0.303119
0.303119
0.303119
0.303119
0.303119
0.303119
0.303119
0.303119
0.303119
0.303119
0.303119
0.303119
0.303119
0.303119
0.303119
0.303119
0.303119
0.303119
0.303119
0.303119
0.303119
0.303119
0.303119
0.303119
0.303119
0.303119
0.303119
0.30312
0.30312
0.30312
0.30312
0.30312
0.30312
0.30312
0.30312
0.30312
0.30312
0.30312
0.30312
0.30312
0.30312
0.30312
0.30312
0.30312
0.30312
0.30312
0.30312
0.30312
0.30312
0.30312
0.30312
0.30312
0.30312
0.30312
0.30312
0.30312
0.30312
0.30312
0.30312
0.30312
0.30312
0.30312
0.30312
0.30312
0.30312
0.30312
0.30312
0.30312
0.30312
0.30312
0.30312
0.30312
0.30312
0.30312
0.30312
0.30312
0.30312
0.30312
0.30312
0.30312
0.30312
0.30312
0.30312
0.30312
0.30312
0.30312
0.30312
0.30312
0.30312
0.30312
0.30312
0.30312
0.30312
0.30312
0.30312
0.30312
0.30312
0.30312
0.30312
0.30312
0.30312
0.30312
0.30312
0.30312
0.30312
0.30312
0.30312
0.30312
0.30312
0.30312
0.30312
0.30312
0.30312
0.30312
0.30312
0.30312
0.30312
0.30312
0.30312
0.30312
0.30312
0.30312
0.30312
0.30312
0.30312
0.30312
0.30312
0.30312
0.30312
0.30312
0.30312
0.30312
0.30312
0.30312
0.30312
0.30312
0.30312
0.30312
0.30312
0.30312
0.30312
0.30312
0.30312
0.30312
0.30312
0.30312
0.30312
0.30312
0.30312
0.30312
0.30312
0.30312
0.30312
0.30312
0.30312
0.30312
0.30312
0.30312
0.30312
0.30312
0.30312
0.30312
0.30312
0.30312
0.30312
0.30312
0.30312
0.30312
0.30312
0.30312
0.30312
0.30312
0.30312
0.30312
0.30312
0.30312
0.30312
0.30312
0.30312
0.30312
0.30312
0.30312
0.30312
0.30312
0.30312
0.30312
0.30312
0.30312
0.30312
0.30312
0.30312
0.30312
0.30312
0.30312
0.30312
0.30312
0.30312
0.30312
0.30312
0.30312
0.30312
0.30312
0.30312
0.30312
0.30312
0.30312
0.30312
0.30312
0.30312
0.30312
0.30312
0.30312
0.30312
0.30312
0.30312
0.30312
0.30312
0.30312
0.30312
0.30312
0.30312
0.30312
0.30312
0.30312
0.30312
0.30312
0.30312
0.30312
0.30312
0.30312
0.30312
0.30312
0.30312
0.30312
0.30312
0.30312
0.30312
0.30312
0.30312
0.30312
0.30312
0.30312
0.30312
0.30312
0.30312
0.30312
0.30312
0.30312
0.30312
0.30312
0.30312
0.30312
0.30312
0.30312
0.30312
0.30312
0.30312
0.30312
0.30312
0.30312
0.30312
0.30312
0.30312
0.30312
0.30312
0.30312
0.30312
0.30312
0.30312
0.30312
0.30312
0.30312
0.30312
0.30312
0.30312
0.30312
0.30312
0.30312
0.30312
0.30312
0.30312
0.30312
0.30312
0.30312
0.30312
0.30312
0.30312
0.30312
0.30312
0.30312
0.30312
0.30312
0.30312
0.30312
0.30312
0.30312
0.30312
0.30312
0.30312
0.30312
0.30312
0.30312
0.30312
0.30312
0.30312
0.30312
0.30312
0.30312
0.30312
0.30312
0.30312
0.30312
0.30312
0.30312
0.30312
0.30312
0.30312
0.30312
0.30312
0.30312
0.30312
0.30312
0.30312
0.30312
0.30312
0.30312
0.30312
0.30312
0.30312
0.30312
0.30312
0.30312
0.30312
0.30312
0.30312
0.30312
0.30312
0.30312
0.30312
0.30312
0.30312
0.30312
0.30312
0.30312
0.30312
0.30312
0.30312
0.30312
0.30312
0.30312
0.30312
0.30312
0.30312
0.30312
0.30312
0.30312
0.30312
0.30312
0.30312
0.30312
0.30312
0.30312
0.30312
0.30312
0.30312
0.30312
0.30312
0.30312
0.30312
0.30312
0.30312
0.30312
0.30312
0.30312
0.30312
0.30312
0.30312
0.30312
0.30312
0.30312
0.30312
0.30312
0.30312
0.30312
0.30312
0.30312
0.30312
0.30312
0.30312
0.30312
0.30312
0.30312
0.30312