/*--------------------------------*- C++ -*----------------------------------*\
| =========                 |                                                 |
| \\      /  F ield         | OpenFOAM: The Open Source CFD Toolbox           |
|  \\    /   O peration     | Version:  2112                                  |
|   \\  /    A nd           | Website:  www.openfoam.com                      |
|    \\/     M anipulation  |                                                 |
\*---------------------------------------------------------------------------*/
FoamFile
{
    version     2.0;
    format      ascii;
    arch        "LSB;label=32;scalar=64";
    class       volScalarField;
    location    "1e-05";
    object      nut;
}
// * * * * * * * * * * * * * * * * * * * * * * * * * * * * * * * * * * * * * //

dimensions      [0 2 -1 0 0 0 0];

internalField   nonuniform List<scalar> 
13875
(
0.0544687
0.951077
0.99789
0.998929
0.999043
0.999029
0.999014
0.999001
0.998985
0.998971
0.998958
0.998945
0.998941
0.998947
0.998942
0.998939
0.998945
0.998952
0.998955
0.998953
0.998934
0.998797
0.997822
0.951037
0.0545689
0.0620638
0.955495
0.987608
0.988838
0.988806
0.988789
0.988775
0.98876
0.988747
0.988735
0.988724
0.988714
0.988712
0.988719
0.988717
0.988714
0.988717
0.988721
0.988724
0.988729
0.988729
0.988741
0.987538
0.955481
0.0621336
0.0628378
0.479816
0.494265
0.49451
0.494511
0.494511
0.49451
0.494508
0.494505
0.494503
0.494501
0.494499
0.494497
0.494495
0.494492
0.49449
0.494488
0.494486
0.494484
0.494481
0.494478
0.494471
0.494224
0.479779
0.0628435
0.0562749
0.330594
0.340798
0.340861
0.340862
0.340862
0.340862
0.340862
0.340862
0.340862
0.340861
0.340861
0.340861
0.340861
0.340861
0.340861
0.340861
0.340861
0.340861
0.340861
0.340861
0.34086
0.340797
0.330573
0.0562762
0.0558998
0.328056
0.338229
0.338292
0.338292
0.338292
0.338292
0.338292
0.338292
0.338292
0.338292
0.338292
0.338292
0.338292
0.338292
0.338292
0.338292
0.338292
0.338292
0.338292
0.338292
0.338292
0.338229
0.328043
0.0558983
0.055827
0.328008
0.338212
0.338275
0.338275
0.338275
0.338275
0.338275
0.338275
0.338275
0.338275
0.338275
0.338275
0.338275
0.338275
0.338275
0.338275
0.338275
0.338275
0.338275
0.338275
0.338275
0.338213
0.328075
0.0558259
0.0558395
0.328079
0.338213
0.338274
0.338275
0.338275
0.338275
0.338275
0.338275
0.338275
0.338275
0.338275
0.338275
0.338275
0.338275
0.338275
0.338275
0.338275
0.338275
0.338275
0.338275
0.338274
0.33821
0.32784
0.0558202
0.0559388
0.327771
0.338209
0.338274
0.338275
0.338275
0.338275
0.338275
0.338275
0.338275
0.338275
0.338275
0.338275
0.338275
0.338275
0.338275
0.338275
0.338275
0.338275
0.338275
0.338275
0.338274
0.338209
0.32776
0.0559533
0.0560616
0.3271
0.338203
0.338274
0.338275
0.338275
0.338275
0.338275
0.338275
0.338275
0.338275
0.338275
0.338275
0.338275
0.338275
0.338275
0.338275
0.338275
0.338275
0.338275
0.338275
0.338274
0.338204
0.327204
0.0560632
0.0518199
0.323752
0.338123
0.338274
0.338275
0.338275
0.338275
0.338275
0.338275
0.338275
0.338275
0.338275
0.338275
0.338275
0.338275
0.338275
0.338275
0.338275
0.338275
0.338275
0.338275
0.338274
0.338125
0.32382
0.0520124
0.0455819
0.318946
0.337963
0.338272
0.338275
0.338275
0.338275
0.338275
0.338275
0.338275
0.338275
0.338275
0.338275
0.338275
0.338275
0.338275
0.338275
0.338275
0.338275
0.338275
0.338275
0.338272
0.337939
0.318218
0.044997
0.0412572
0.314172
0.337797
0.33827
0.338275
0.338275
0.338275
0.338275
0.338275
0.338275
0.338275
0.338275
0.338275
0.338275
0.338275
0.338275
0.338275
0.338275
0.338275
0.338275
0.338275
0.33827
0.337797
0.314296
0.0411747
0.0380261
0.309224
0.337624
0.338267
0.338275
0.338275
0.338275
0.338275
0.338275
0.338275
0.338275
0.338275
0.338275
0.338275
0.338275
0.338275
0.338275
0.338275
0.338275
0.338275
0.338275
0.338267
0.33765
0.310009
0.0382121
0.0357423
0.30503
0.337491
0.338265
0.338275
0.338275
0.338275
0.338275
0.338275
0.338275
0.338275
0.338275
0.338275
0.338275
0.338275
0.338275
0.338275
0.338275
0.338275
0.338275
0.338275
0.338266
0.337574
0.306574
0.0366373
0.034607
0.301635
0.33743
0.338263
0.338275
0.338275
0.338275
0.338275
0.338275
0.338275
0.338275
0.338275
0.338275
0.338275
0.338275
0.338275
0.338275
0.338275
0.338275
0.338275
0.338275
0.338261
0.337327
0.299375
0.0340218
0.0319169
0.294378
0.337129
0.338257
0.338274
0.338275
0.338275
0.338275
0.338275
0.338275
0.338275
0.338275
0.338275
0.338275
0.338275
0.338275
0.338275
0.338275
0.338275
0.338275
0.338274
0.338255
0.33703
0.292873
0.0313332
0.0318019
0.294742
0.337305
0.338261
0.338275
0.338275
0.338275
0.338275
0.338275
0.338275
0.338275
0.338275
0.338275
0.338275
0.338275
0.338275
0.338275
0.338275
0.338275
0.338275
0.338275
0.338262
0.337335
0.295499
0.0318624
0.0320172
0.296257
0.337465
0.338264
0.338275
0.338275
0.338275
0.338275
0.338275
0.338275
0.338275
0.338275
0.338275
0.338275
0.338275
0.338275
0.338275
0.338275
0.338275
0.338275
0.338275
0.338264
0.337468
0.296155
0.032093
0.0310075
0.286812
0.336994
0.338255
0.338274
0.338275
0.338275
0.338275
0.338275
0.338275
0.338275
0.338275
0.338275
0.338275
0.338275
0.338275
0.338275
0.338275
0.338275
0.338275
0.338274
0.338258
0.337128
0.289323
0.0314826
0.0304378
0.279113
0.33641
0.338241
0.338274
0.338275
0.338275
0.338275
0.338275
0.338275
0.338275
0.338275
0.338275
0.338275
0.338275
0.338275
0.338275
0.338275
0.338275
0.338275
0.338274
0.338239
0.336341
0.278216
0.0301045
0.0337354
0.289098
0.336959
0.338254
0.338274
0.338275
0.338275
0.338275
0.338275
0.338275
0.338275
0.338275
0.338275
0.338275
0.338275
0.338275
0.338275
0.338275
0.338275
0.338275
0.338274
0.33825
0.336823
0.286604
0.0331366
0.0371921
0.299011
0.337413
0.338263
0.338275
0.338275
0.338275
0.338275
0.338275
0.338275
0.338275
0.338275
0.338275
0.338275
0.338275
0.338275
0.338275
0.338275
0.338275
0.338275
0.338275
0.338262
0.337384
0.298303
0.037104
0.0406681
0.306808
0.337709
0.338268
0.338275
0.338275
0.338275
0.338275
0.338275
0.338275
0.338275
0.338275
0.338275
0.338275
0.338275
0.338275
0.338275
0.338275
0.338275
0.338275
0.338275
0.338269
0.337742
0.307754
0.0410516
0.0441312
0.313385
0.33791
0.338271
0.338275
0.338275
0.338275
0.338275
0.338275
0.338275
0.338275
0.338275
0.338275
0.338275
0.338275
0.338275
0.338275
0.338275
0.338275
0.338275
0.338275
0.338271
0.337907
0.313274
0.0440099
0.0463606
0.316545
0.337985
0.338272
0.338275
0.338275
0.338275
0.338275
0.338275
0.338275
0.338275
0.338275
0.338275
0.338275
0.338275
0.338275
0.338275
0.338275
0.338275
0.338275
0.338275
0.338272
0.337979
0.316305
0.0462846
0.0488598
0.31929
0.338047
0.338273
0.338275
0.338275
0.338275
0.338275
0.338275
0.338275
0.338275
0.338275
0.338275
0.338275
0.338275
0.338275
0.338275
0.338275
0.338275
0.338275
0.338275
0.338273
0.338057
0.319732
0.0491065
0.0515167
0.322103
0.338104
0.338273
0.338275
0.338275
0.338275
0.338275
0.338275
0.338275
0.338275
0.338275
0.338275
0.338275
0.338275
0.338275
0.338275
0.338275
0.338275
0.338275
0.338275
0.338273
0.338094
0.321647
0.0511608
0.0534937
0.323698
0.338131
0.338274
0.338275
0.338275
0.338275
0.338275
0.338275
0.338275
0.338275
0.338275
0.338275
0.338275
0.338275
0.338275
0.338275
0.338275
0.338275
0.338275
0.338275
0.338274
0.338132
0.323677
0.0536063
0.0556751
0.325127
0.338156
0.338274
0.338275
0.338275
0.338275
0.338275
0.338275
0.338275
0.338275
0.338275
0.338275
0.338275
0.338275
0.338275
0.338275
0.338275
0.338275
0.338275
0.338275
0.338274
0.338165
0.325667
0.0560581
0.0582929
0.327107
0.338188
0.338274
0.338275
0.338275
0.338275
0.338275
0.338275
0.338275
0.338275
0.338275
0.338275
0.338275
0.338275
0.338275
0.338275
0.338275
0.338275
0.338275
0.338275
0.338274
0.33818
0.326626
0.0577946
0.0598923
0.32802
0.3382
0.338274
0.338275
0.338275
0.338275
0.338275
0.338275
0.338275
0.338275
0.338275
0.338275
0.338275
0.338275
0.338275
0.338275
0.338275
0.338275
0.338275
0.338275
0.338274
0.338201
0.328071
0.0600822
0.06151
0.328682
0.338208
0.338274
0.338275
0.338275
0.338275
0.338275
0.338275
0.338275
0.338275
0.338275
0.338275
0.338275
0.338275
0.338275
0.338275
0.338275
0.338275
0.338275
0.338275
0.338274
0.338212
0.328981
0.0617474
0.063567
0.329831
0.338223
0.338274
0.338275
0.338275
0.338275
0.338275
0.338275
0.338275
0.338275
0.338275
0.338275
0.338275
0.338275
0.338275
0.338275
0.338275
0.338275
0.338275
0.338275
0.338274
0.33822
0.329576
0.0632721
0.0648397
0.330372
0.338229
0.338274
0.338275
0.338275
0.338275
0.338275
0.338275
0.338275
0.338275
0.338275
0.338275
0.338275
0.338275
0.338275
0.338275
0.338275
0.338275
0.338275
0.338275
0.338274
0.33823
0.330447
0.0650139
0.066081
0.330717
0.338232
0.338274
0.338275
0.338275
0.338275
0.338275
0.338275
0.338275
0.338275
0.338275
0.338275
0.338275
0.338275
0.338275
0.338275
0.338275
0.338275
0.338275
0.338275
0.338275
0.338234
0.330914
0.0662274
0.0677082
0.331462
0.33824
0.338275
0.338275
0.338275
0.338275
0.338275
0.338275
0.338275
0.338275
0.338275
0.338275
0.338275
0.338275
0.338275
0.338275
0.338275
0.338275
0.338275
0.338275
0.338275
0.338237
0.331234
0.0674355
0.0687257
0.331807
0.338243
0.338275
0.338275
0.338275
0.338275
0.338275
0.338275
0.338275
0.338275
0.338275
0.338275
0.338275
0.338275
0.338275
0.338275
0.338275
0.338275
0.338275
0.338275
0.338275
0.338244
0.331852
0.0688579
0.0697007
0.332011
0.338245
0.338275
0.338275
0.338275
0.338275
0.338275
0.338275
0.338275
0.338275
0.338275
0.338275
0.338275
0.338275
0.338275
0.338275
0.338275
0.338275
0.338275
0.338275
0.338275
0.338246
0.332167
0.0698141
0.0709467
0.332522
0.338249
0.338275
0.338275
0.338275
0.338275
0.338275
0.338275
0.338275
0.338275
0.338275
0.338275
0.338275
0.338275
0.338275
0.338275
0.338275
0.338275
0.338275
0.338275
0.338275
0.338248
0.332336
0.070729
0.0717276
0.332751
0.338251
0.338275
0.338275
0.338275
0.338275
0.338275
0.338275
0.338275
0.338275
0.338275
0.338275
0.338275
0.338275
0.338275
0.338275
0.338275
0.338275
0.338275
0.338275
0.338275
0.338252
0.332781
0.071826
0.072458
0.332865
0.338252
0.338275
0.338275
0.338275
0.338275
0.338275
0.338275
0.338275
0.338275
0.338275
0.338275
0.338275
0.338275
0.338275
0.338275
0.338275
0.338275
0.338275
0.338275
0.338275
0.338253
0.332999
0.0725473
0.0733701
0.33323
0.338255
0.338275
0.338275
0.338275
0.338275
0.338275
0.338275
0.338275
0.338275
0.338275
0.338275
0.338275
0.338275
0.338275
0.338275
0.338275
0.338275
0.338275
0.338275
0.338275
0.338254
0.333084
0.0732164
0.0739358
0.333384
0.338256
0.338275
0.338275
0.338275
0.338275
0.338275
0.338275
0.338275
0.338275
0.338275
0.338275
0.338275
0.338275
0.338275
0.338275
0.338275
0.338275
0.338275
0.338275
0.338275
0.338256
0.333399
0.0739971
0.0744497
0.333442
0.338257
0.338275
0.338275
0.338275
0.338275
0.338275
0.338275
0.338275
0.338275
0.338275
0.338275
0.338275
0.338275
0.338275
0.338275
0.338275
0.338275
0.338275
0.338275
0.338275
0.338257
0.333553
0.0745133
0.0750664
0.333704
0.338258
0.338275
0.338275
0.338275
0.338275
0.338275
0.338275
0.338275
0.338275
0.338275
0.338275
0.338275
0.338275
0.338275
0.338275
0.338275
0.338275
0.338275
0.338275
0.338275
0.338258
0.333598
0.0749759
0.0754402
0.333807
0.338259
0.338275
0.338275
0.338275
0.338275
0.338275
0.338275
0.338275
0.338275
0.338275
0.338275
0.338275
0.338275
0.338275
0.338275
0.338275
0.338275
0.338275
0.338275
0.338275
0.338259
0.333807
0.0754691
0.0757672
0.333828
0.338259
0.338275
0.338275
0.338275
0.338275
0.338275
0.338275
0.338275
0.338275
0.338275
0.338275
0.338275
0.338275
0.338275
0.338275
0.338275
0.338275
0.338275
0.338275
0.338275
0.33826
0.333918
0.0758061
0.076132
0.334015
0.33826
0.338275
0.338275
0.338275
0.338275
0.338275
0.338275
0.338275
0.338275
0.338275
0.338275
0.338275
0.338275
0.338275
0.338275
0.338275
0.338275
0.338275
0.338275
0.338275
0.33826
0.333943
0.0760869
0.076344
0.334082
0.338261
0.338275
0.338275
0.338275
0.338275
0.338275
0.338275
0.338275
0.338275
0.338275
0.338275
0.338275
0.338275
0.338275
0.338275
0.338275
0.338275
0.338275
0.338275
0.338275
0.338261
0.33406
0.076347
0.0765239
0.334084
0.338261
0.338275
0.338275
0.338275
0.338275
0.338275
0.338275
0.338275
0.338275
0.338275
0.338275
0.338275
0.338275
0.338275
0.338275
0.338275
0.338275
0.338275
0.338275
0.338275
0.338261
0.334117
0.0765338
0.154959
0.337482
0.338275
0.338277
0.338277
0.338277
0.338277
0.338277
0.338277
0.338277
0.338277
0.338277
0.338277
0.338277
0.338277
0.338277
0.338277
0.338277
0.338277
0.338277
0.338277
0.338277
0.338277
0.338277
0.338276
0.338276
0.338276
0.338276
0.338022
0.175919
0.146512
0.337794
0.338272
0.338275
0.338275
0.338275
0.338275
0.338275
0.338275
0.338275
0.338275
0.338275
0.338275
0.338275
0.338275
0.338275
0.338275
0.338275
0.338275
0.338275
0.338275
0.338275
0.338275
0.338275
0.338275
0.338275
0.338275
0.338275
0.337999
0.174145
0.153332
0.337924
0.338273
0.338275
0.338275
0.338275
0.338275
0.338275
0.338275
0.338275
0.338275
0.338275
0.338275
0.338275
0.338275
0.338275
0.338275
0.338275
0.338275
0.338275
0.338275
0.338275
0.338275
0.338275
0.338275
0.338275
0.338275
0.338275
0.33799
0.172491
0.157284
0.337919
0.338274
0.338275
0.338275
0.338275
0.338275
0.338275
0.338275
0.338275
0.338275
0.338275
0.338275
0.338275
0.338275
0.338275
0.338275
0.338275
0.338275
0.338275
0.338275
0.338275
0.338275
0.338275
0.338275
0.338275
0.338275
0.338275
0.337983
0.171089
0.157099
0.337897
0.338274
0.338275
0.338275
0.338275
0.338275
0.338275
0.338275
0.338275
0.338275
0.338275
0.338275
0.338275
0.338275
0.338275
0.338275
0.338275
0.338275
0.338275
0.338275
0.338275
0.338275
0.338275
0.338275
0.338275
0.338275
0.338275
0.337975
0.169814
0.156776
0.337895
0.338274
0.338275
0.338275
0.338275
0.338275
0.338275
0.338275
0.338275
0.338275
0.338275
0.338275
0.338275
0.338275
0.338275
0.338275
0.338275
0.338275
0.338275
0.338275
0.338275
0.338275
0.338275
0.338275
0.338275
0.338275
0.338275
0.337968
0.168596
0.156824
0.337898
0.338274
0.338275
0.338275
0.338275
0.338275
0.338275
0.338275
0.338275
0.338275
0.338275
0.338275
0.338275
0.338275
0.338275
0.338275
0.338275
0.338275
0.338275
0.338275
0.338275
0.338275
0.338275
0.338275
0.338275
0.338275
0.338275
0.33796
0.167442
0.157294
0.337904
0.338274
0.338275
0.338275
0.338275
0.338275
0.338275
0.338275
0.338275
0.338275
0.338275
0.338275
0.338275
0.338275
0.338275
0.338275
0.338275
0.338275
0.338275
0.338275
0.338275
0.338275
0.338275
0.338275
0.338275
0.338275
0.338274
0.337953
0.166375
0.15777
0.337906
0.338274
0.338275
0.338275
0.338275
0.338275
0.338275
0.338275
0.338275
0.338275
0.338275
0.338275
0.338275
0.338275
0.338275
0.338275
0.338275
0.338275
0.338275
0.338275
0.338275
0.338275
0.338275
0.338275
0.338275
0.338275
0.338274
0.337947
0.165405
0.158084
0.337906
0.338274
0.338275
0.338275
0.338275
0.338275
0.338275
0.338275
0.338275
0.338275
0.338275
0.338275
0.338275
0.338275
0.338275
0.338275
0.338275
0.338275
0.338275
0.338275
0.338275
0.338275
0.338275
0.338275
0.338275
0.338275
0.338274
0.337941
0.164528
0.158209
0.337905
0.338274
0.338275
0.338275
0.338275
0.338275
0.338275
0.338275
0.338275
0.338275
0.338275
0.338275
0.338275
0.338275
0.338275
0.338275
0.338275
0.338275
0.338275
0.338275
0.338275
0.338275
0.338275
0.338275
0.338275
0.338275
0.338274
0.337936
0.163733
0.158216
0.337904
0.338274
0.338275
0.338275
0.338275
0.338275
0.338275
0.338275
0.338275
0.338275
0.338275
0.338275
0.338275
0.338275
0.338275
0.338275
0.338275
0.338275
0.338275
0.338275
0.338275
0.338275
0.338275
0.338275
0.338275
0.338275
0.338274
0.337931
0.163009
0.158193
0.337903
0.338274
0.338275
0.338275
0.338275
0.338275
0.338275
0.338275
0.338275
0.338275
0.338275
0.338275
0.338275
0.338275
0.338275
0.338275
0.338275
0.338275
0.338275
0.338275
0.338275
0.338275
0.338275
0.338275
0.338275
0.338275
0.338274
0.337926
0.162349
0.15812
0.337902
0.338274
0.338275
0.338275
0.338275
0.338275
0.338275
0.338275
0.338275
0.338275
0.338275
0.338275
0.338275
0.338275
0.338275
0.338275
0.338275
0.338275
0.338275
0.338275
0.338275
0.338275
0.338275
0.338275
0.338275
0.338275
0.338274
0.337922
0.161747
0.158146
0.337902
0.338274
0.338275
0.338275
0.338275
0.338275
0.338275
0.338275
0.338275
0.338275
0.338275
0.338275
0.338275
0.338275
0.338275
0.338275
0.338275
0.338275
0.338275
0.338275
0.338275
0.338275
0.338275
0.338275
0.338275
0.338275
0.338274
0.337918
0.161205
0.15808
0.337901
0.338274
0.338275
0.338275
0.338275
0.338275
0.338275
0.338275
0.338275
0.338275
0.338275
0.338275
0.338275
0.338275
0.338275
0.338275
0.338275
0.338275
0.338275
0.338275
0.338275
0.338275
0.338275
0.338275
0.338275
0.338275
0.338274
0.337914
0.160719
0.158057
0.3379
0.338274
0.338275
0.338275
0.338275
0.338275
0.338275
0.338275
0.338275
0.338275
0.338275
0.338275
0.338275
0.338275
0.338275
0.338275
0.338275
0.338275
0.338275
0.338275
0.338275
0.338275
0.338275
0.338275
0.338275
0.338275
0.338274
0.337911
0.160284
0.158068
0.3379
0.338274
0.338275
0.338275
0.338275
0.338275
0.338275
0.338275
0.338275
0.338275
0.338275
0.338275
0.338275
0.338275
0.338275
0.338275
0.338275
0.338275
0.338275
0.338275
0.338275
0.338275
0.338275
0.338275
0.338275
0.338275
0.338274
0.337908
0.159901
0.158039
0.337899
0.338274
0.338275
0.338275
0.338275
0.338275
0.338275
0.338275
0.338275
0.338275
0.338275
0.338275
0.338275
0.338275
0.338275
0.338275
0.338275
0.338275
0.338275
0.338275
0.338275
0.338275
0.338275
0.338275
0.338275
0.338275
0.338274
0.337906
0.159567
0.15806
0.337899
0.338274
0.338275
0.338275
0.338275
0.338275
0.338275
0.338275
0.338275
0.338275
0.338275
0.338275
0.338275
0.338275
0.338275
0.338275
0.338275
0.338275
0.338275
0.338275
0.338275
0.338275
0.338275
0.338275
0.338275
0.338275
0.338274
0.337904
0.159278
0.158088
0.337899
0.338274
0.338275
0.338275
0.338275
0.338275
0.338275
0.338275
0.338275
0.338275
0.338275
0.338275
0.338275
0.338275
0.338275
0.338275
0.338275
0.338275
0.338275
0.338275
0.338275
0.338275
0.338275
0.338275
0.338275
0.338275
0.338274
0.337902
0.159035
0.158106
0.337899
0.338274
0.338275
0.338275
0.338275
0.338275
0.338275
0.338275
0.338275
0.338275
0.338275
0.338275
0.338275
0.338275
0.338275
0.338275
0.338275
0.338275
0.338275
0.338275
0.338275
0.338275
0.338275
0.338275
0.338275
0.338275
0.338274
0.337901
0.158831
0.158176
0.337899
0.338274
0.338275
0.338275
0.338275
0.338275
0.338275
0.338275
0.338275
0.338275
0.338275
0.338275
0.338275
0.338275
0.338275
0.338275
0.338275
0.338275
0.338275
0.338275
0.338275
0.338275
0.338275
0.338275
0.338275
0.338275
0.338274
0.3379
0.158668
0.158238
0.337899
0.338274
0.338275
0.338275
0.338275
0.338275
0.338275
0.338275
0.338275
0.338275
0.338275
0.338275
0.338275
0.338275
0.338275
0.338275
0.338275
0.338275
0.338275
0.338275
0.338275
0.338275
0.338275
0.338275
0.338275
0.338275
0.338274
0.337899
0.158542
0.158307
0.337932
0.338274
0.338275
0.338275
0.338275
0.338275
0.338275
0.338275
0.338275
0.338275
0.338275
0.338275
0.338275
0.338275
0.338275
0.338275
0.338275
0.338275
0.338275
0.338275
0.338275
0.338275
0.338275
0.338275
0.338275
0.338275
0.338274
0.337898
0.158449
0.175918
0.338022
0.338276
0.338276
0.338276
0.338276
0.338277
0.338277
0.338277
0.338277
0.338277
0.338277
0.338277
0.338277
0.338277
0.338277
0.338277
0.338277
0.338277
0.338277
0.338277
0.338277
0.338277
0.338277
0.338277
0.338277
0.338277
0.338275
0.337482
0.154917
0.174145
0.337999
0.338275
0.338275
0.338275
0.338275
0.338275
0.338275
0.338275
0.338275
0.338275
0.338275
0.338275
0.338275
0.338275
0.338275
0.338275
0.338275
0.338275
0.338275
0.338275
0.338275
0.338275
0.338275
0.338275
0.338275
0.338275
0.338272
0.337794
0.146532
0.172489
0.33799
0.338275
0.338275
0.338275
0.338275
0.338275
0.338275
0.338275
0.338275
0.338275
0.338275
0.338275
0.338275
0.338275
0.338275
0.338275
0.338275
0.338275
0.338275
0.338275
0.338275
0.338275
0.338275
0.338275
0.338275
0.338275
0.338273
0.337924
0.153297
0.171088
0.337983
0.338275
0.338275
0.338275
0.338275
0.338275
0.338275
0.338275
0.338275
0.338275
0.338275
0.338275
0.338275
0.338275
0.338275
0.338275
0.338275
0.338275
0.338275
0.338275
0.338275
0.338275
0.338275
0.338275
0.338275
0.338275
0.338274
0.33792
0.157336
0.169815
0.337975
0.338275
0.338275
0.338275
0.338275
0.338275
0.338275
0.338275
0.338275
0.338275
0.338275
0.338275
0.338275
0.338275
0.338275
0.338275
0.338275
0.338275
0.338275
0.338275
0.338275
0.338275
0.338275
0.338275
0.338275
0.338275
0.338274
0.337897
0.157119
0.168595
0.337968
0.338275
0.338275
0.338275
0.338275
0.338275
0.338275
0.338275
0.338275
0.338275
0.338275
0.338275
0.338275
0.338275
0.338275
0.338275
0.338275
0.338275
0.338275
0.338275
0.338275
0.338275
0.338275
0.338275
0.338275
0.338275
0.338274
0.337895
0.156703
0.167443
0.33796
0.338275
0.338275
0.338275
0.338275
0.338275
0.338275
0.338275
0.338275
0.338275
0.338275
0.338275
0.338275
0.338275
0.338275
0.338275
0.338275
0.338275
0.338275
0.338275
0.338275
0.338275
0.338275
0.338275
0.338275
0.338275
0.338274
0.337899
0.156921
0.166376
0.337953
0.338274
0.338275
0.338275
0.338275
0.338275
0.338275
0.338275
0.338275
0.338275
0.338275
0.338275
0.338275
0.338275
0.338275
0.338275
0.338275
0.338275
0.338275
0.338275
0.338275
0.338275
0.338275
0.338275
0.338275
0.338275
0.338274
0.337903
0.157241
0.165405
0.337947
0.338274
0.338275
0.338275
0.338275
0.338275
0.338275
0.338275
0.338275
0.338275
0.338275
0.338275
0.338275
0.338275
0.338275
0.338275
0.338275
0.338275
0.338275
0.338275
0.338275
0.338275
0.338275
0.338275
0.338275
0.338275
0.338274
0.337907
0.157777
0.164529
0.337941
0.338274
0.338275
0.338275
0.338275
0.338275
0.338275
0.338275
0.338275
0.338275
0.338275
0.338275
0.338275
0.338275
0.338275
0.338275
0.338275
0.338275
0.338275
0.338275
0.338275
0.338275
0.338275
0.338275
0.338275
0.338275
0.338274
0.337906
0.158106
0.163733
0.337936
0.338274
0.338275
0.338275
0.338275
0.338275
0.338275
0.338275
0.338275
0.338275
0.338275
0.338275
0.338275
0.338275
0.338275
0.338275
0.338275
0.338275
0.338275
0.338275
0.338275
0.338275
0.338275
0.338275
0.338275
0.338275
0.338274
0.337905
0.158157
0.163009
0.337931
0.338274
0.338275
0.338275
0.338275
0.338275
0.338275
0.338275
0.338275
0.338275
0.338275
0.338275
0.338275
0.338275
0.338275
0.338275
0.338275
0.338275
0.338275
0.338275
0.338275
0.338275
0.338275
0.338275
0.338275
0.338275
0.338274
0.337905
0.158258
0.16235
0.337926
0.338274
0.338275
0.338275
0.338275
0.338275
0.338275
0.338275
0.338275
0.338275
0.338275
0.338275
0.338275
0.338275
0.338275
0.338275
0.338275
0.338275
0.338275
0.338275
0.338275
0.338275
0.338275
0.338275
0.338275
0.338275
0.338274
0.337903
0.158187
0.161747
0.337922
0.338274
0.338275
0.338275
0.338275
0.338275
0.338275
0.338275
0.338275
0.338275
0.338275
0.338275
0.338275
0.338275
0.338275
0.338275
0.338275
0.338275
0.338275
0.338275
0.338275
0.338275
0.338275
0.338275
0.338275
0.338275
0.338274
0.337902
0.158114
0.161205
0.337918
0.338274
0.338275
0.338275
0.338275
0.338275
0.338275
0.338275
0.338275
0.338275
0.338275
0.338275
0.338275
0.338275
0.338275
0.338275
0.338275
0.338275
0.338275
0.338275
0.338275
0.338275
0.338275
0.338275
0.338275
0.338275
0.338274
0.337902
0.158142
0.160719
0.337914
0.338274
0.338275
0.338275
0.338275
0.338275
0.338275
0.338275
0.338275
0.338275
0.338275
0.338275
0.338275
0.338275
0.338275
0.338275
0.338275
0.338275
0.338275
0.338275
0.338275
0.338275
0.338275
0.338275
0.338275
0.338275
0.338274
0.337901
0.158094
0.160284
0.337911
0.338274
0.338275
0.338275
0.338275
0.338275
0.338275
0.338275
0.338275
0.338275
0.338275
0.338275
0.338275
0.338275
0.338275
0.338275
0.338275
0.338275
0.338275
0.338275
0.338275
0.338275
0.338275
0.338275
0.338275
0.338275
0.338274
0.3379
0.158044
0.159901
0.337908
0.338274
0.338275
0.338275
0.338275
0.338275
0.338275
0.338275
0.338275
0.338275
0.338275
0.338275
0.338275
0.338275
0.338275
0.338275
0.338275
0.338275
0.338275
0.338275
0.338275
0.338275
0.338275
0.338275
0.338275
0.338275
0.338274
0.3379
0.158065
0.159567
0.337906
0.338274
0.338275
0.338275
0.338275
0.338275
0.338275
0.338275
0.338275
0.338275
0.338275
0.338275
0.338275
0.338275
0.338275
0.338275
0.338275
0.338275
0.338275
0.338275
0.338275
0.338275
0.338275
0.338275
0.338275
0.338275
0.338274
0.337899
0.158057
0.159279
0.337904
0.338274
0.338275
0.338275
0.338275
0.338275
0.338275
0.338275
0.338275
0.338275
0.338275
0.338275
0.338275
0.338275
0.338275
0.338275
0.338275
0.338275
0.338275
0.338275
0.338275
0.338275
0.338275
0.338275
0.338275
0.338275
0.338274
0.337899
0.158045
0.159034
0.337902
0.338274
0.338275
0.338275
0.338275
0.338275
0.338275
0.338275
0.338275
0.338275
0.338275
0.338275
0.338275
0.338275
0.338275
0.338275
0.338275
0.338275
0.338275
0.338275
0.338275
0.338275
0.338275
0.338275
0.338275
0.338275
0.338274
0.337899
0.158086
0.158832
0.337901
0.338274
0.338275
0.338275
0.338275
0.338275
0.338275
0.338275
0.338275
0.338275
0.338275
0.338275
0.338275
0.338275
0.338275
0.338275
0.338275
0.338275
0.338275
0.338275
0.338275
0.338275
0.338275
0.338275
0.338275
0.338275
0.338274
0.337899
0.158124
0.158668
0.3379
0.338274
0.338275
0.338275
0.338275
0.338275
0.338275
0.338275
0.338275
0.338275
0.338275
0.338275
0.338275
0.338275
0.338275
0.338275
0.338275
0.338275
0.338275
0.338275
0.338275
0.338275
0.338275
0.338275
0.338275
0.338275
0.338274
0.337899
0.158161
0.158541
0.337899
0.338274
0.338275
0.338275
0.338275
0.338275
0.338275
0.338275
0.338275
0.338275
0.338275
0.338275
0.338275
0.338275
0.338275
0.338275
0.338275
0.338275
0.338275
0.338275
0.338275
0.338275
0.338275
0.338275
0.338275
0.338275
0.338274
0.337899
0.158239
0.158448
0.337898
0.338274
0.338275
0.338275
0.338275
0.338275
0.338275
0.338275
0.338275
0.338275
0.338275
0.338275
0.338275
0.338275
0.338275
0.338275
0.338275
0.338275
0.338275
0.338275
0.338275
0.338275
0.338275
0.338275
0.338275
0.338275
0.338274
0.337932
0.15831
0.129314
0.129549
0.129783
0.130018
0.130253
0.130488
0.130723
0.130958
0.131192
0.131427
0.131662
0.131897
0.132132
0.132366
0.132601
0.132836
0.133071
0.133306
0.133541
0.133775
0.13401
0.134245
0.13448
0.134715
0.13495
0.135184
0.135419
0.135654
0.135889
0.136124
0.136358
0.136593
0.136828
0.137063
0.137298
0.137533
0.137767
0.138002
0.138237
0.138472
0.138707
0.138941
0.139176
0.139411
0.139646
0.139881
0.140116
0.14035
0.140585
0.14082
0.141055
0.14129
0.141525
0.141759
0.141994
0.142229
0.142464
0.142699
0.142933
0.143168
0.143403
0.143638
0.143873
0.144108
0.144342
0.144577
0.144812
0.145047
0.145282
0.145517
0.145751
0.145986
0.146221
0.146456
0.146691
0.146925
0.14716
0.147395
0.14763
0.147865
0.1481
0.148334
0.148569
0.148804
0.149039
0.149274
0.149509
0.149743
0.149978
0.150213
0.150448
0.150683
0.150917
0.151152
0.151387
0.151622
0.151857
0.152092
0.152326
0.152561
0.152796
0.153031
0.153266
0.1535
0.153735
0.15397
0.154205
0.15444
0.154675
0.154909
0.155144
0.155379
0.155614
0.155849
0.156084
0.156318
0.156553
0.156788
0.157023
0.157258
0.157493
0.157727
0.157962
0.158197
0.158432
0.33751
0.337516
0.337521
0.337525
0.33753
0.337534
0.337539
0.337543
0.337548
0.337552
0.337556
0.337561
0.337565
0.337569
0.337573
0.337577
0.337582
0.337586
0.33759
0.337594
0.337598
0.337602
0.337606
0.33761
0.337614
0.337618
0.337621
0.337625
0.337629
0.337633
0.337637
0.33764
0.337644
0.337648
0.337651
0.337655
0.337658
0.337662
0.337666
0.337669
0.337673
0.337676
0.33768
0.337683
0.337686
0.33769
0.337693
0.337696
0.3377
0.337703
0.337706
0.337709
0.337713
0.337716
0.337719
0.337722
0.337725
0.337728
0.337732
0.337735
0.337738
0.337741
0.337744
0.337747
0.33775
0.337753
0.337755
0.337758
0.337761
0.337764
0.337767
0.33777
0.337773
0.337775
0.337778
0.337781
0.337784
0.337786
0.337789
0.337792
0.337794
0.337797
0.3378
0.337802
0.337805
0.337807
0.33781
0.337813
0.337815
0.337818
0.33782
0.337823
0.337825
0.337828
0.33783
0.337832
0.337835
0.337837
0.33784
0.337842
0.337844
0.337847
0.337849
0.337851
0.337853
0.337856
0.337858
0.33786
0.337862
0.337865
0.337867
0.337869
0.337871
0.337873
0.337876
0.337878
0.33788
0.337882
0.337884
0.337886
0.337888
0.33789
0.337892
0.337894
0.337897
0.338274
0.338274
0.338274
0.338274
0.338274
0.338274
0.338274
0.338274
0.338274
0.338274
0.338274
0.338274
0.338274
0.338274
0.338274
0.338274
0.338274
0.338274
0.338274
0.338274
0.338274
0.338274
0.338274
0.338274
0.338274
0.338274
0.338274
0.338274
0.338274
0.338274
0.338274
0.338274
0.338274
0.338274
0.338274
0.338274
0.338274
0.338274
0.338274
0.338274
0.338274
0.338274
0.338274
0.338274
0.338274
0.338274
0.338274
0.338274
0.338274
0.338274
0.338274
0.338274
0.338274
0.338274
0.338274
0.338274
0.338274
0.338274
0.338274
0.338274
0.338274
0.338274
0.338274
0.338274
0.338274
0.338274
0.338274
0.338274
0.338274
0.338274
0.338274
0.338274
0.338274
0.338274
0.338274
0.338274
0.338274
0.338274
0.338274
0.338274
0.338274
0.338274
0.338274
0.338274
0.338274
0.338274
0.338274
0.338274
0.338274
0.338274
0.338274
0.338274
0.338274
0.338274
0.338274
0.338274
0.338274
0.338274
0.338274
0.338274
0.338274
0.338274
0.338274
0.338274
0.338274
0.338274
0.338274
0.338274
0.338274
0.338274
0.338274
0.338274
0.338274
0.338274
0.338274
0.338274
0.338274
0.338274
0.338274
0.338274
0.338274
0.338274
0.338274
0.338274
0.338274
0.338275
0.338275
0.338275
0.338275
0.338275
0.338275
0.338275
0.338275
0.338275
0.338275
0.338275
0.338275
0.338275
0.338275
0.338275
0.338275
0.338275
0.338275
0.338275
0.338275
0.338275
0.338275
0.338275
0.338275
0.338275
0.338275
0.338275
0.338275
0.338275
0.338275
0.338275
0.338275
0.338275
0.338275
0.338275
0.338275
0.338275
0.338275
0.338275
0.338275
0.338275
0.338275
0.338275
0.338275
0.338275
0.338275
0.338275
0.338275
0.338275
0.338275
0.338275
0.338275
0.338275
0.338275
0.338275
0.338275
0.338275
0.338275
0.338275
0.338275
0.338275
0.338275
0.338275
0.338275
0.338275
0.338275
0.338275
0.338275
0.338275
0.338275
0.338275
0.338275
0.338275
0.338275
0.338275
0.338275
0.338275
0.338275
0.338275
0.338275
0.338275
0.338275
0.338275
0.338275
0.338275
0.338275
0.338275
0.338275
0.338275
0.338275
0.338275
0.338275
0.338275
0.338275
0.338275
0.338275
0.338275
0.338275
0.338275
0.338275
0.338275
0.338275
0.338275
0.338275
0.338275
0.338275
0.338275
0.338275