/*--------------------------------*- C++ -*----------------------------------*\
| =========                 |                                                 |
| \\      /  F ield         | OpenFOAM: The Open Source CFD Toolbox           |
|  \\    /   O peration     | Version:  2112                                  |
|   \\  /    A nd           | Website:  www.openfoam.com                      |
|    \\/     M anipulation  |                                                 |
\*---------------------------------------------------------------------------*/
FoamFile
{
    version     2.0;
    format      ascii;
    arch        "LSB;label=32;scalar=64";
    class       surfaceScalarField;
    location    "1e-05";
    object      phi;
}
// * * * * * * * * * * * * * * * * * * * * * * * * * * * * * * * * * * * * * //

dimensions      [1 0 -1 0 0 0 0];

oriented        oriented;

internalField   nonuniform List<scalar> 
27436
(
-0.155284
5.0753
-0.0671678
5.00149
-0.0523931
5.01234
-0.0457564
5.01312
-0.0394608
5.01338
-0.0332253
5.01355
-0.0269898
5.0137
-0.0207596
5.0137
-0.0145261
5.01375
-0.00829258
5.0138
-0.0020569
5.01382
0.00418874
5.01384
0.010431
5.01385
0.0166598
5.01382
0.0228841
5.01378
0.0291253
5.01375
0.0353613
5.01364
0.041584
5.01353
0.047819
5.01347
0.0540553
5.01345
0.0603485
5.01343
0.0670387
5.01301
0.081831
5.01215
0.168675
5.00142
5.07788
-0.0378587
2.57694
-0.0189864
2.5342
-0.0191371
2.53815
-0.0168284
2.53807
-0.0145223
2.53815
-0.0122243
2.53825
-0.00993025
2.53832
-0.0076363
2.53832
-0.00534254
2.53833
-0.00304855
2.53833
-0.000752893
2.53833
0.00154405
2.53833
0.00384003
2.53832
0.00613315
2.5383
0.00842366
2.53828
0.0107187
2.53827
0.0130129
2.53825
0.015306
2.53823
0.017602
2.53821
0.0198972
2.53819
0.0222093
2.53815
0.0245294
2.538
0.0243422
2.538
0.0428431
2.53411
2.57829
-0.00549196
0.122502
-0.00394372
0.126238
-0.00438725
0.126614
-0.00402025
0.126617
-0.00364072
0.12662
-0.00326082
0.126621
-0.00288143
0.12662
-0.00250221
0.126619
-0.00212292
0.126618
-0.00174362
0.126617
-0.00136431
0.126616
-0.000984744
0.126615
-0.000605361
0.126613
-0.000226169
0.126611
0.000152578
0.126609
0.000531924
0.126608
0.000911254
0.126606
0.0012904
0.126604
0.00167002
0.126602
0.00204924
0.1266
0.00242946
0.126597
0.0027977
0.126591
0.00235433
0.126583
0.0038801
0.126202
0.122532
-0.000547757
0.0188433
-0.000495371
0.0192797
-0.000496763
0.0192976
-0.000449661
0.0192976
-0.000401036
0.0192976
-0.000352386
0.0192976
-0.000303739
0.0192976
-0.000255094
0.0192975
-0.000206448
0.0192975
-0.000157803
0.0192975
-0.000109158
0.0192975
-6.05114e-05
0.0192974
-1.18664e-05
0.0192974
3.67769e-05
0.0192974
8.54141e-05
0.0192973
0.000134057
0.0192973
0.0001827
0.0192973
0.00023134
0.0192972
0.000279985
0.0192972
0.000328624
0.0192972
0.000377246
0.0192971
0.000424344
0.0192971
0.000423008
0.0192969
0.000477476
0.0192788
0.0188419
-0.000280664
0.017953
-0.000259954
0.0179768
-0.000233457
0.0179775
-0.000205385
0.0179775
-0.000177248
0.0179775
-0.00014911
0.0179775
-0.000120971
0.0179775
-9.28326e-05
0.0179775
-6.46939e-05
0.0179775
-3.65553e-05
0.0179775
-8.41664e-06
0.0179775
1.9722e-05
0.0179775
4.78606e-05
0.0179775
7.59992e-05
0.0179775
0.000104138
0.0179775
0.000132276
0.0179775
0.000160415
0.0179775
0.000188554
0.0179775
0.000216692
0.0179775
0.000244831
0.0179775
0.000272967
0.0179775
0.000301037
0.0179775
0.000327502
0.0179775
0.000346633
0.0179768
0.0179535
-0.000167856
0.0179291
-0.000153701
0.0179334
-0.000135476
0.0179334
-0.00011717
0.0179334
-9.8857e-05
0.0179334
-8.05436e-05
0.0179334
-6.22301e-05
0.0179334
-4.39167e-05
0.0179334
-2.56032e-05
0.0179334
-7.28973e-06
0.0179334
1.10237e-05
0.0179334
2.93372e-05
0.0179334
4.76507e-05
0.0179334
6.59641e-05
0.0179334
8.42776e-05
0.0179334
0.000102591
0.0179334
0.000120905
0.0179334
0.000139218
0.0179334
0.000157531
0.0179334
0.000175845
0.0179334
0.000194158
0.0179334
0.000212461
0.0179334
0.000230656
0.0179334
0.00024322
0.0179334
0.0179443
7.43454e-06
0.0179644
-1.80817e-05
0.017959
-4.43551e-05
0.017959
-7.06292e-05
0.017959
-9.69039e-05
0.017959
-0.000123179
0.017959
-0.000149454
0.017959
-0.000175729
0.017959
-0.000202004
0.017959
-0.000228278
0.017959
-0.000254553
0.017959
-0.000280828
0.017959
-0.000307103
0.017959
-0.000333378
0.017959
-0.000359653
0.017959
-0.000385928
0.017959
-0.000412203
0.017959
-0.000438478
0.017959
-0.000464753
0.017959
-0.000491027
0.017959
-0.000517301
0.017959
-0.000543553
0.017959
-0.000569559
0.017959
-0.000582124
0.0179588
0.0179491
0.000762788
0.0179841
0.000722867
0.0180171
0.000664676
0.0180175
0.000606205
0.0180175
0.000547707
0.0180175
0.000489206
0.0180175
0.000430706
0.0180175
0.000372205
0.0180175
0.000313705
0.0180175
0.000255204
0.0180175
0.000196703
0.0180175
0.000138203
0.0180175
7.97019e-05
0.0180175
2.12012e-05
0.0180175
-3.72994e-05
0.0180175
-9.58001e-05
0.0180175
-0.000154301
0.0180175
-0.000212801
0.0180175
-0.000271302
0.0180175
-0.000329803
0.0180175
-0.000388302
0.0180175
-0.00044678
0.0180175
-0.00050506
0.0180175
-0.000549845
0.0180172
0.0179823
0.000153529
0.0177782
0.000157788
0.0180075
0.000158909
0.0180159
0.000160207
0.0180162
0.000161518
0.0180162
0.000162829
0.0180162
0.00016414
0.0180162
0.000165451
0.0180162
0.000166762
0.0180162
0.000168073
0.0180162
0.000169385
0.0180162
0.000170696
0.0180162
0.000172007
0.0180162
0.000173318
0.0180162
0.000174629
0.0180162
0.00017594
0.0180162
0.000177252
0.0180162
0.000178563
0.0180162
0.000179874
0.0180162
0.000181185
0.0180162
0.000182495
0.0180162
0.000183779
0.0180162
0.000184725
0.0180159
0.000181008
0.0180068
0.0177972
-0.0076834
0.0172537
-0.00728226
0.0172885
-0.00660624
0.0173324
-0.00592407
0.0173334
-0.00524138
0.0173335
-0.00455865
0.0173335
-0.00387592
0.0173335
-0.00319319
0.0173335
-0.00251046
0.0173335
-0.00182773
0.0173335
-0.001145
0.0173335
-0.000462265
0.0173335
0.000220466
0.0173335
0.000903196
0.0173335
0.00158593
0.0173335
0.00226866
0.0173335
0.00295139
0.0173335
0.00363412
0.0173335
0.00431685
0.0173335
0.00499958
0.0173335
0.00568227
0.0173335
0.00636445
0.0173334
0.00704069
0.0173323
0.0074521
0.0172862
0.01724
-0.0111123
0.0162413
-0.0105979
0.0162217
-0.00957702
0.0162963
-0.00854277
0.016298
-0.00750746
0.0162981
-0.00647206
0.0162981
-0.00543666
0.0162981
-0.00440126
0.0162981
-0.00336585
0.0162981
-0.00233045
0.0162981
-0.00129505
0.0162981
-0.000259648
0.0162981
0.000775754
0.0162981
0.00181116
0.0162981
0.00284656
0.0162981
0.00388196
0.0162981
0.00491736
0.0162981
0.00595276
0.0162981
0.00698817
0.0162981
0.00802357
0.0162981
0.00905887
0.0162981
0.010093
0.016298
0.0111126
0.0162963
0.0115897
0.0162187
0.0162468
-0.0121224
0.0151327
-0.011673
0.0150897
-0.0105773
0.0151794
-0.00946269
0.0151815
-0.00834645
0.0151817
-0.00723008
0.0151817
-0.00611371
0.0151817
-0.00499734
0.0151817
-0.00388097
0.0151817
-0.0027646
0.0151817
-0.00164822
0.0151817
-0.000531852
0.0151817
0.00058452
0.0151817
0.00170089
0.0151817
0.00281726
0.0151817
0.00393364
0.0151817
0.00505001
0.0151817
0.00616638
0.0151817
0.00728275
0.0151817
0.00839912
0.0151817
0.00951535
0.0151817
0.01063
0.0151815
0.0117256
0.0151795
0.0121726
0.015091
0.0151395
-0.0122401
0.0140215
-0.0118784
0.0139616
-0.0107786
0.0140536
-0.00965525
0.0140559
-0.00852986
0.0140561
-0.00740428
0.0140561
-0.00627869
0.0140561
-0.00515311
0.0140561
-0.00402753
0.0140561
-0.00290194
0.0140561
-0.00177636
0.0140561
-0.000650772
0.0140561
0.000474812
0.0140561
0.0016004
0.0140561
0.00272598
0.0140561
0.00385156
0.0140561
0.00497715
0.0140561
0.00610273
0.0140561
0.00722832
0.0140561
0.00835389
0.0140561
0.0094793
0.0140561
0.0106028
0.014056
0.0117037
0.014054
0.0120867
0.0139717
0.0140557
-0.0116996
0.0130281
-0.0114449
0.0129276
-0.0104233
0.0130042
-0.00937613
0.0130062
-0.00832663
0.0130064
-0.00727691
0.0130064
-0.00622718
0.0130064
-0.00517745
0.0130064
-0.00412772
0.0130064
-0.00307799
0.0130064
-0.00202825
0.0130064
-0.000978523
0.0130064
7.12079e-05
0.0130064
0.00112094
0.0130064
0.00217067
0.0130064
0.0032204
0.0130064
0.00427013
0.0130064
0.00531986
0.0130064
0.0063696
0.0130064
0.00741932
0.0130064
0.00846885
0.0130064
0.0095163
0.0130062
0.0105415
0.0130041
0.0108813
0.0129279
0.0129599
-0.010003
0.011992
-0.00974588
0.0119675
-0.00880311
0.0120356
-0.00783706
0.0120376
-0.00686864
0.0120377
-0.00589999
0.0120377
-0.00493133
0.0120377
-0.00396266
0.0120377
-0.002994
0.0120377
-0.00202534
0.0120377
-0.00105668
0.0120377
-8.80128e-05
0.0120377
0.00088065
0.0120377
0.00184931
0.0120377
0.00281797
0.0120377
0.00378664
0.0120377
0.0047553
0.0120377
0.00572396
0.0120377
0.00669262
0.0120377
0.00766128
0.0120377
0.00862965
0.0120377
0.00959522
0.0120375
0.010534
0.0120351
0.0107093
0.011955
0.0119868
-0.00990898
0.011175
-0.00973812
0.0110248
-0.00880063
0.0110679
-0.00783545
0.0110691
-0.00686726
0.0110692
-0.00589874
0.0110692
-0.00493021
0.0110692
-0.00396167
0.0110692
-0.00299314
0.0110692
-0.00202461
0.0110692
-0.00105608
0.0110692
-8.75463e-05
0.0110692
0.000880986
0.0110692
0.00184952
0.0110692
0.00281805
0.0110692
0.00378658
0.0110692
0.00475511
0.0110692
0.00572365
0.0110692
0.00669218
0.0110692
0.00766069
0.0110692
0.00862884
0.0110692
0.00959361
0.0110691
0.0105271
0.0110677
0.0106144
0.0110214
0.011207
-0.00656288
0.0105485
-0.00645763
0.0104519
-0.00586723
0.0104603
-0.0052607
0.0104605
-0.00465228
0.0104605
-0.00404364
0.0104605
-0.00343499
0.0104605
-0.00282634
0.0104605
-0.00221769
0.0104605
-0.00160904
0.0104605
-0.00100039
0.0104605
-0.000391735
0.0104605
0.000216916
0.0104605
0.000825567
0.0104605
0.00143422
0.0104605
0.00204287
0.0104605
0.00265152
0.0104605
0.00326017
0.0104605
0.00386882
0.0104605
0.00447746
0.0104605
0.00508589
0.0104605
0.00569256
0.0104605
0.00628384
0.0104604
0.00640609
0.0104549
0.0105441
-0.00189903
0.0104644
-0.00189509
0.0103296
-0.0017691
0.0103301
-0.00163932
0.0103301
-0.00150901
0.0103301
-0.00137863
0.0103301
-0.00124826
0.0103301
-0.00111788
0.0103301
-0.00098751
0.0103301
-0.000857135
0.0103301
-0.00072676
0.0103301
-0.000596386
0.0103301
-0.000466011
0.0103301
-0.000335636
0.0103301
-0.000205262
0.0103301
-7.48869e-05
0.0103301
5.54878e-05
0.0103301
0.000185863
0.0103301
0.000316237
0.0103301
0.000446611
0.0103301
0.000576952
0.0103301
0.000707027
0.0103301
0.000835095
0.0103301
0.000901397
0.0103289
0.0104095
0.00724652
0.0109176
0.00720557
0.0109001
0.00659196
0.0109614
0.00596093
0.0109634
0.00532774
0.0109636
0.00469428
0.0109636
0.00406081
0.0109636
0.00342734
0.0109636
0.00279387
0.0109636
0.0021604
0.0109636
0.00152693
0.0109636
0.000893463
0.0109636
0.000259993
0.0109636
-0.000373476
0.0109636
-0.00100695
0.0109636
-0.00164041
0.0109636
-0.00227388
0.0109636
-0.00290735
0.0109636
-0.00354082
0.0109636
-0.00417428
0.0109636
-0.00480753
0.0109636
-0.00543906
0.0109635
-0.00605651
0.0109615
-0.00619861
0.0109048
0.0109456
0.0111237
0.01183
0.011094
0.0119445
0.0100568
0.0120376
0.00898391
0.0120409
0.00790684
0.0120411
0.00682933
0.0120411
0.0057518
0.0120411
0.00467428
0.0120411
0.00359675
0.0120411
0.00251922
0.0120411
0.00144169
0.0120411
0.000364161
0.0120411
-0.000713368
0.0120411
-0.0017909
0.0120411
-0.00286842
0.0120411
-0.00394595
0.0120411
-0.00502348
0.0120411
-0.00610101
0.0120411
-0.00717854
0.0120411
-0.00825605
0.0120411
-0.00933309
0.0120411
-0.0104058
0.0120409
-0.0114411
0.0120371
-0.0114277
0.0119343
0.0118281
0.0108167
0.0129233
0.0106489
0.013011
0.00963071
0.013088
0.00858462
0.0130906
0.00753534
0.0130907
0.00648575
0.0130907
0.00543615
0.0130907
0.00438655
0.0130907
0.00333695
0.0130907
0.00228735
0.0130907
0.00123775
0.0130907
0.000188154
0.0130907
-0.000861445
0.0130907
-0.00191104
0.0130907
-0.00296064
0.0130907
-0.00401024
0.0130907
-0.00505984
0.0130907
-0.00610944
0.0130907
-0.00715904
0.0130907
-0.00820862
0.0130907
-0.00925787
0.0130907
-0.0103035
0.0130905
-0.0113178
0.0130877
-0.0114034
0.0130035
0.0129022
0.0102947
0.0139091
0.010038
0.0139938
0.00909564
0.0140536
0.00813333
0.0140553
0.00716885
0.0140554
0.00620419
0.0140554
0.00523953
0.0140554
0.00427486
0.0140554
0.00331019
0.0140554
0.00234552
0.0140554
0.00138086
0.0140554
0.000416188
0.0140554
-0.000548479
0.0140554
-0.00151315
0.0140554
-0.00247781
0.0140554
-0.00344248
0.0140554
-0.00440715
0.0140554
-0.00537182
0.0140554
-0.00633649
0.0140554
-0.00730115
0.0140554
-0.00826561
0.0140554
-0.00922781
0.0140553
-0.0101693
0.0140536
-0.0104098
0.0139955
0.0139021
0.00948063
0.0147851
0.00918006
0.0148651
0.00834171
0.0149082
0.00748939
0.0149092
0.00663563
0.0149093
0.00578175
0.0149093
0.00492787
0.0149093
0.00407398
0.0149093
0.0032201
0.0149093
0.00236622
0.0149093
0.00151233
0.0149093
0.000658451
0.0149093
-0.000195432
0.0149093
-0.00104931
0.0149093
-0.0019032
0.0149093
-0.00275708
0.0149093
-0.00361096
0.0149093
-0.00446485
0.0149093
-0.00531873
0.0149093
-0.00617261
0.0149093
-0.00702638
0.0149093
-0.00787882
0.0149092
-0.00871827
0.0149083
-0.00905477
0.014867
0.0147977
0.00828283
0.0155858
0.00792727
0.015639
0.00717328
0.0156729
0.00640996
0.0156736
0.00564574
0.0156736
0.00488144
0.0156736
0.00411714
0.0156736
0.00335285
0.0156736
0.00258855
0.0156736
0.00182425
0.0156736
0.00105995
0.0156736
0.000295657
0.0156736
-0.00046864
0.0156736
-0.00123294
0.0156736
-0.00199724
0.0156736
-0.00276153
0.0156736
-0.00352583
0.0156736
-0.00429013
0.0156736
-0.00505443
0.0156736
-0.00581872
0.0156736
-0.00658294
0.0156736
-0.00734625
0.0156736
-0.00810006
0.0156728
-0.00844609
0.0156378
0.0155831
0.00832179
0.0163449
0.00793487
0.0164041
0.00718166
0.016435
0.00642047
0.0164355
0.00565856
0.0164356
0.00489658
0.0164356
0.00413461
0.0164356
0.00337264
0.0164356
0.00261067
0.0164356
0.00184869
0.0164356
0.00108672
0.0164356
0.000324746
0.0164356
-0.000437227
0.0164356
-0.0011992
0.0164356
-0.00196117
0.0164356
-0.00272315
0.0164356
-0.00348512
0.0164356
-0.00424709
0.0164356
-0.00500907
0.0164356
-0.00577104
0.0164356
-0.00653295
0.0164356
-0.00729412
0.0164355
-0.00804711
0.016435
-0.00842658
0.0164048
0.01634
0.00798271
0.0170596
0.00760082
0.0171188
0.00689896
0.0171442
0.00619046
0.0171447
0.00548139
0.0171447
0.00477227
0.0171447
0.00406316
0.0171447
0.00335404
0.0171447
0.00264492
0.0171447
0.0019358
0.0171447
0.00122668
0.0171447
0.000517562
0.0171447
-0.000191556
0.0171447
-0.000900675
0.0171447
-0.00160979
0.0171447
-0.00231891
0.0171447
-0.00302803
0.0171447
-0.00373715
0.0171447
-0.00444627
0.0171447
-0.00515539
0.0171447
-0.00586446
0.0171447
-0.00657299
0.0171447
-0.00727527
0.0171442
-0.00767462
0.0171185
0.0170701
0.00725235
0.0177532
0.00684289
0.0177986
0.00617238
0.0178204
0.00549673
0.0178208
0.00482066
0.0178208
0.00414455
0.0178208
0.00346845
0.0178208
0.00279234
0.0178208
0.00211624
0.0178208
0.00144013
0.0178208
0.000764023
0.0178208
8.79173e-05
0.0178208
-0.000588189
0.0178208
-0.00126429
0.0178208
-0.0019404
0.0178208
-0.00261651
0.0178208
-0.00329261
0.0178208
-0.00396872
0.0178208
-0.00464482
0.0178208
-0.00532093
0.0178208
-0.005997
0.0178208
-0.00667261
0.0178208
-0.00734264
0.0178204
-0.00772923
0.0177974
0.0177383
0.00729532
0.0183979
0.006895
0.0184509
0.00624956
0.0184709
0.0055995
0.0184712
0.00494908
0.0184712
0.00429863
0.0184712
0.00364818
0.0184712
0.00299773
0.0184712
0.00234728
0.0184712
0.00169683
0.0184712
0.00104638
0.0184712
0.00039593
0.0184712
-0.00025452
0.0184712
-0.00090497
0.0184712
-0.00155542
0.0184712
-0.00220587
0.0184712
-0.00285632
0.0184712
-0.00350677
0.0184712
-0.00415722
0.0184712
-0.00480767
0.0184712
-0.00545809
0.0184712
-0.00610815
0.0184712
-0.00675364
0.018471
-0.00715854
0.0184527
0.018399
0.00695384
0.0189986
0.00657524
0.019056
0.00597925
0.0190713
0.00537927
0.0190715
0.00477899
0.0190715
0.00417869
0.0190715
0.00357838
0.0190715
0.00297808
0.0190715
0.00237778
0.0190715
0.00177747
0.0190715
0.00117717
0.0190715
0.000576864
0.0190715
-2.34399e-05
0.0190715
-0.000623744
0.0190715
-0.00122405
0.0190715
-0.00182435
0.0190715
-0.00242466
0.0190715
-0.00302496
0.0190715
-0.00362526
0.0190715
-0.00422557
0.0190715
-0.00482585
0.0190715
-0.00542586
0.0190715
-0.00602232
0.0190713
-0.00642336
0.0190558
0.0190151
0.00572562
0.0195696
0.00534207
0.0196062
0.00479851
0.019618
0.00425211
0.0196182
0.00370549
0.0196182
0.00315886
0.0196182
0.00261223
0.0196182
0.0020656
0.0196182
0.00151897
0.0196182
0.000972335
0.0196182
0.000425704
0.0196182
-0.000120928
0.0196182
-0.00066756
0.0196182
-0.00121419
0.0196182
-0.00176082
0.0196182
-0.00230745
0.0196182
-0.00285409
0.0196182
-0.00340072
0.0196182
-0.00394735
0.0196182
-0.00449398
0.0196182
-0.00504059
0.0196182
-0.00558696
0.0196182
-0.00613004
0.019618
-0.00648675
0.019605
0.0195438
0.00577786
0.0200704
0.00542978
0.0201097
0.00492964
0.020121
0.00442689
0.0201211
0.00392395
0.0201211
0.00342101
0.0201211
0.00291806
0.0201211
0.00241511
0.0201211
0.00191216
0.0201211
0.00140921
0.0201211
0.000906263
0.0201211
0.000403315
0.0201211
-9.96336e-05
0.0201211
-0.000602582
0.0201211
-0.00110553
0.0201211
-0.00160848
0.0201211
-0.00211143
0.0201211
-0.00261438
0.0201211
-0.00311732
0.0201211
-0.00362027
0.0201211
-0.00412321
0.0201211
-0.00462596
0.0201211
-0.00512622
0.020121
-0.00548267
0.020111
0.0200732
0.0056301
0.0205441
0.00528917
0.0205972
0.00480663
0.0206061
0.00432171
0.0206062
0.00383661
0.0206062
0.00335151
0.0206062
0.0028664
0.0206062
0.0023813
0.0206062
0.00189619
0.0206062
0.00141109
0.0206062
0.000925981
0.0206062
0.000440876
0.0206062
-4.42295e-05
0.0206062
-0.000529335
0.0206062
-0.00101444
0.0206062
-0.00149955
0.0206062
-0.00198465
0.0206062
-0.00246976
0.0206062
-0.00295486
0.0206062
-0.00343997
0.0206062
-0.00392506
0.0206062
-0.00441001
0.0206062
-0.00489277
0.0206061
-0.00524621
0.0205971
0.0205615
0.00456107
0.0209997
0.00423757
0.0210296
0.00380914
0.0210365
0.00337894
0.0210365
0.00294863
0.0210366
0.00251831
0.0210366
0.00208798
0.0210366
0.00165766
0.0210366
0.00122734
0.0210366
0.000797014
0.0210366
0.000366691
0.0210366
-6.36319e-05
0.0210366
-0.000493955
0.0210366
-0.000924278
0.0210366
-0.0013546
0.0210366
-0.00178492
0.0210366
-0.00221525
0.0210366
-0.00264557
0.0210366
-0.00307589
0.0210366
-0.00350622
0.0210366
-0.00393653
0.0210366
-0.00436671
0.0210365
-0.00479489
0.0210365
-0.0051035
0.0210292
0.0209853
0.00460156
0.0213936
0.0043098
0.0214241
0.00391727
0.0214308
0.00352309
0.0214308
0.0031288
0.0214309
0.0027345
0.0214309
0.0023402
0.0214309
0.0019459
0.0214309
0.0015516
0.0214309
0.00115731
0.0214309
0.000763006
0.0214309
0.000368708
0.0214309
-2.55911e-05
0.0214309
-0.00041989
0.0214309
-0.000814189
0.0214309
-0.00120849
0.0214309
-0.00160279
0.0214309
-0.00199709
0.0214309
-0.00239138
0.0214309
-0.00278568
0.0214309
-0.00317997
0.0214309
-0.00357417
0.0214308
-0.00396681
0.0214308
-0.00426656
0.021425
0.0213968
0.00455424
0.0217679
0.00426062
0.0218177
0.00387015
0.021823
0.0034781
0.021823
0.00308595
0.021823
0.00269379
0.021823
0.00230164
0.021823
0.00190948
0.021823
0.00151732
0.021823
0.00112516
0.021823
0.000733006
0.021823
0.000340849
0.021823
-5.13089e-05
0.021823
-0.000443466
0.021823
-0.000835624
0.021823
-0.00122778
0.021823
-0.00161994
0.021823
-0.0020121
0.021823
-0.00240425
0.021823
-0.00279641
0.021823
-0.00318856
0.021823
-0.00358062
0.021823
-0.00397123
0.021823
-0.00427242
0.0218174
0.0217865
0.0035967
0.0221397
0.00332349
0.0221646
0.00297909
0.0221686
0.00263353
0.0221687
0.00228789
0.0221687
0.00194225
0.0221687
0.0015966
0.0221687
0.00125096
0.0221687
0.000905315
0.0221687
0.000559671
0.0221687
0.000214027
0.0221687
-0.000131617
0.0221687
-0.00047726
0.0221687
-0.000822904
0.0221687
-0.00116855
0.0221687
-0.00151419
0.0221687
-0.00185984
0.0221687
-0.00220548
0.0221687
-0.00255112
0.0221687
-0.00289677
0.0221687
-0.0032424
0.0221687
-0.00358796
0.0221687
-0.00393214
0.0221686
-0.0041918
0.0221642
0.022121
0.00363625
0.0224478
0.00339785
0.0224732
0.00309053
0.0224771
0.00278209
0.0224772
0.00247359
0.0224772
0.00216508
0.0224772
0.00185658
0.0224772
0.00154807
0.0224772
0.00123956
0.0224772
0.000931052
0.0224772
0.000622544
0.0224772
0.000314036
0.0224772
5.52865e-06
0.0224772
-0.000302979
0.0224772
-0.000611487
0.0224772
-0.000919995
0.0224772
-0.0012285
0.0224772
-0.00153701
0.0224772
-0.00184552
0.0224772
-0.00215403
0.0224772
-0.00246253
0.0224772
-0.00277097
0.0224772
-0.00307838
0.0224771
-0.00332297
0.0224738
0.0224504
0.00359627
0.0227373
0.00335738
0.0227808
0.00305177
0.0227839
0.0027451
0.0227839
0.00243835
0.0227839
0.00213161
0.0227839
0.00182486
0.0227839
0.00151811
0.0227839
0.00121137
0.0227839
0.00090462
0.0227839
0.000597874
0.0227839
0.000291127
0.0227839
-1.56196e-05
0.0227839
-0.000322366
0.0227839
-0.000629113
0.0227839
-0.000935859
0.0227839
-0.00124261
0.0227839
-0.00154935
0.0227839
-0.0018561
0.0227839
-0.00216285
0.0227839
-0.00246959
0.0227839
-0.00277627
0.0227839
-0.00308199
0.0227839
-0.00332686
0.0227806
0.0227564
0.00272947
0.023029
0.00251025
0.0230495
0.00224322
0.0230517
0.00197541
0.0230518
0.00170756
0.0230518
0.0014397
0.0230518
0.00117184
0.0230518
0.000903983
0.0230518
0.000636125
0.0230518
0.000368266
0.0230518
0.000100408
0.0230518
-0.000167451
0.0230518
-0.00043531
0.0230518
-0.000703168
0.0230518
-0.000971027
0.0230518
-0.00123889
0.0230518
-0.00150674
0.0230518
-0.0017746
0.0230518
-0.00204246
0.0230518
-0.00231032
0.0230518
-0.00257817
0.0230518
-0.00284597
0.0230518
-0.00311282
0.0230517
-0.00332064
0.0230492
0.0230075
0.00276714
0.0232602
0.00258306
0.023281
0.00235239
0.0232832
0.00212096
0.0232832
0.00188949
0.0232832
0.00165802
0.0232832
0.00142654
0.0232832
0.00119507
0.0232832
0.000963597
0.0232832
0.000732124
0.0232832
0.00050065
0.0232832
0.000269177
0.0232832
3.77037e-05
0.0232832
-0.00019377
0.0232832
-0.000425243
0.0232832
-0.000656716
0.0232832
-0.00088819
0.0232832
-0.00111966
0.0232832
-0.00135114
0.0232832
-0.00158261
0.0232832
-0.00181408
0.0232832
-0.00204551
0.0232832
-0.00227626
0.0232832
-0.00246546
0.0232814
0.0232622
0.00274233
0.0234735
0.00255822
0.023512
0.0023286
0.0235136
0.00209825
0.0235136
0.00186786
0.0235136
0.00163747
0.0235136
0.00140708
0.0235136
0.00117668
0.0235136
0.000946292
0.0235136
0.0007159
0.0235136
0.000485508
0.0235136
0.000255116
0.0235136
2.47237e-05
0.0235136
-0.000205669
0.0235136
-0.000436061
0.0235136
-0.000666453
0.0235136
-0.000896845
0.0235136
-0.00112724
0.0235136
-0.00135763
0.0235136
-0.00158802
0.0235136
-0.00181841
0.0235136
-0.00204876
0.0235136
-0.00227847
0.0235136
-0.00246773
0.0235118
0.0234928
0.00194991
0.0236925
0.00178468
0.0237092
0.00158847
0.0237104
0.00139175
0.0237104
0.00119501
0.0237104
0.000998256
0.0237104
0.000801506
0.0237104
0.000604756
0.0237104
0.000408007
0.0237104
0.000211257
0.0237104
1.45076e-05
0.0237104
-0.000182242
0.0237104
-0.000378992
0.0237104
-0.000575741
0.0237104
-0.000772491
0.0237104
-0.00096924
0.0237104
-0.00116599
0.0237104
-0.00136274
0.0237104
-0.00155949
0.0237104
-0.00175624
0.0237104
-0.00195299
0.0237104
-0.0021497
0.0237104
-0.00234576
0.0237104
-0.00250178
0.023709
0.0236713
0.00198355
0.0238563
0.00185065
0.023873
0.00168741
0.0238741
0.00152366
0.0238742
0.00135989
0.0238742
0.00119612
0.0238742
0.00103235
0.0238742
0.000868573
0.0238742
0.000704801
0.0238742
0.000541028
0.0238742
0.000377255
0.0238742
0.000213482
0.0238742
4.97095e-05
0.0238742
-0.000114063
0.0238742
-0.000277836
0.0238742
-0.000441609
0.0238742
-0.000605382
0.0238742
-0.000769154
0.0238742
-0.000932927
0.0238742
-0.0010967
0.0238742
-0.00126047
0.0238742
-0.00142422
0.0238742
-0.00158752
0.0238741
-0.0017243
0.0238733
0.0238574
0.00197377
0.0240021
0.00184185
0.0240357
0.00168003
0.0240365
0.00151772
0.0240365
0.00135539
0.0240365
0.00119306
0.0240365
0.00103072
0.0240365
0.000868389
0.0240365
0.000706056
0.0240365
0.000543722
0.0240365
0.000381388
0.0240365
0.000219055
0.0240365
5.6721e-05
0.0240365
-0.000105613
0.0240365
-0.000267946
0.0240365
-0.00043028
0.0240365
-0.000592614
0.0240365
-0.000754947
0.0240365
-0.000917281
0.0240365
-0.00107961
0.0240365
-0.00124195
0.0240365
-0.00140426
0.0240365
-0.00156615
0.0240365
-0.00170246
0.0240356
0.0240203
0.00126218
0.0241548
0.00114891
0.0241682
0.00101704
0.0241687
0.00088486
0.0241687
0.000752664
0.0241687
0.000620467
0.0241687
0.000488269
0.0241687
0.000356072
0.0241687
0.000223875
0.0241687
9.16773e-05
0.0241687
-4.052e-05
0.0241687
-0.000172717
0.0241687
-0.000304915
0.0241687
-0.000437112
0.0241687
-0.00056931
0.0241687
-0.000701507
0.0241687
-0.000833704
0.0241687
-0.000965902
0.0241687
-0.0010981
0.0241687
-0.0012303
0.0241687
-0.00136249
0.0241687
-0.00149467
0.0241687
-0.00162642
0.0241687
-0.00173276
0.0241681
0.0241372
0.00128914
0.0242604
0.00120219
0.0242738
0.00109695
0.0242742
0.000991401
0.0242742
0.000885839
0.0242742
0.000780277
0.0242742
0.000674714
0.0242742
0.000569152
0.0242742
0.000463589
0.0242742
0.000358027
0.0242742
0.000252464
0.0242742
0.000146902
0.0242742
4.13391e-05
0.0242742
-6.42235e-05
0.0242742
-0.000169786
0.0242742
-0.000275349
0.0242742
-0.000380911
0.0242742
-0.000486474
0.0242742
-0.000592036
0.0242742
-0.000697599
0.0242742
-0.00080316
0.0242742
-0.000908708
0.0242742
-0.00101398
0.0242742
-0.00110344
0.0242739
0.0242606
0.00128988
0.0243476
0.00120587
0.0243764
0.00110372
0.0243767
0.00100127
0.0243767
0.000898802
0.0243767
0.000796333
0.0243767
0.000693863
0.0243767
0.000591394
0.0243767
0.000488924
0.0243767
0.000386455
0.0243767
0.000283985
0.0243767
0.000181516
0.0243767
7.90466e-05
0.0243767
-2.34229e-05
0.0243767
-0.000125892
0.0243767
-0.000228362
0.0243767
-0.000330831
0.0243767
-0.000433301
0.0243767
-0.00053577
0.0243767
-0.000638239
0.0243767
-0.000740708
0.0243767
-0.000843164
0.0243767
-0.00094538
0.0243767
-0.00103305
0.0243764
0.0243643
0.000665054
0.024442
0.000598487
0.0244526
0.000522602
0.0244528
0.000446556
0.0244528
0.000370502
0.0244528
0.000294448
0.0244528
0.000218394
0.0244528
0.000142339
0.0244528
6.62846e-05
0.0244528
-9.76989e-06
0.0244528
-8.58244e-05
0.0244528
-0.000161879
0.0244528
-0.000237933
0.0244528
-0.000313988
0.0244528
-0.000390042
0.0244528
-0.000466097
0.0244528
-0.000542151
0.0244528
-0.000618206
0.0244528
-0.00069426
0.0244528
-0.000770315
0.0244528
-0.000846368
0.0244528
-0.000922409
0.0244528
-0.000998203
0.0244528
-0.00105953
0.0244525
0.0244301
0.000682573
0.0245013
0.000633247
0.0245114
0.000574738
0.0245114
0.00051607
0.0245114
0.000457395
0.0245114
0.000398718
0.0245114
0.000340042
0.0245114
0.000281366
0.0245114
0.00022269
0.0245114
0.000164014
0.0245114
0.000105338
0.0245114
4.66617e-05
0.0245114
-1.20144e-05
0.0245114
-7.06905e-05
0.0245114
-0.000129367
0.0245114
-0.000188043
0.0245114
-0.000246719
0.0245114
-0.000305395
0.0245114
-0.000364071
0.0245114
-0.000422747
0.0245114
-0.000481423
0.0245114
-0.00054009
0.0245114
-0.000598603
0.0245114
-0.000648311
0.0245114
0.0245004
0.000675546
0.0245429
0.000639939
0.0245664
0.000584926
0.0245667
0.000529662
0.0245667
0.000474387
0.0245667
0.000419111
0.0245667
0.000363835
0.0245667
0.000308559
0.0245667
0.000253283
0.0245667
0.000198007
0.0245667
0.00014273
0.0245667
8.74544e-05
0.0245667
3.21783e-05
0.0245667
-2.30978e-05
0.0245667
-7.83739e-05
0.0245667
-0.00013365
0.0245667
-0.000188926
0.0245667
-0.000244202
0.0245667
-0.000299478
0.0245667
-0.000354754
0.0245667
-0.00041003
0.0245667
-0.000465294
0.0245667
-0.000520336
0.0245667
-0.00055745
0.0245664
0.0245486
-0.0149538
0.0559466
-0.0145376
0.0559424
-0.0140198
0.0559662
-0.0135006
0.0559662
-0.0129814
0.0559662
-0.0124621
0.0559662
-0.0119428
0.0559662
-0.0114236
0.0559662
-0.0109043
0.0559662
-0.0103851
0.0559662
-0.00986583
0.0559662
-0.00934658
0.0559662
-0.00882732
0.0559662
-0.00830807
0.0559662
-0.00778881
0.0559662
-0.00726956
0.0559662
-0.00675031
0.0559662
-0.00623105
0.0559662
-0.0057118
0.0559662
-0.00519254
0.0559662
-0.00467329
0.0559662
-0.00415403
0.0559662
-0.00363478
0.0559662
-0.00311553
0.0559662
-0.00259627
0.0559662
-0.00207702
0.0559662
-0.00155776
0.0559662
-0.00103838
0.0559662
-0.000502465
0.0559661
0.0559602
-0.0169103
0.0554994
-0.0164475
0.0553562
-0.0158618
0.0553787
-0.0152744
0.0553788
-0.0146869
0.0553788
-0.0140994
0.0553788
-0.013512
0.0553788
-0.0129245
0.0553788
-0.012337
0.0553788
-0.0117495
0.0553788
-0.011162
0.0553788
-0.0105746
0.0553788
-0.0099871
0.0553788
-0.00939962
0.0553788
-0.00881214
0.0553788
-0.00822467
0.0553788
-0.00763719
0.0553788
-0.00704972
0.0553788
-0.00646224
0.0553788
-0.00587476
0.0553788
-0.00528729
0.0553788
-0.00469981
0.0553788
-0.00411233
0.0553788
-0.00352486
0.0553788
-0.00293738
0.0553788
-0.0023499
0.0553788
-0.00176243
0.0553788
-0.00117484
0.0553788
-0.000587218
0.0553788
0.0553725
-0.0141926
0.0549442
-0.0137867
0.054871
-0.0132955
0.0548863
-0.0128031
0.0548863
-0.0123107
0.0548863
-0.0118183
0.0548863
-0.0113258
0.0548863
-0.0108334
0.0548863
-0.010341
0.0548863
-0.00984855
0.0548863
-0.00935613
0.0548863
-0.0088637
0.0548863
-0.00837127
0.0548863
-0.00787884
0.0548863
-0.00738641
0.0548863
-0.00689399
0.0548863
-0.00640156
0.0548863
-0.00590913
0.0548863
-0.0054167
0.0548863
-0.00492428
0.0548863
-0.00443185
0.0548863
-0.00393942
0.0548863
-0.00344699
0.0548863
-0.00295457
0.0548863
-0.00246214
0.0548863
-0.00196971
0.0548863
-0.00147728
0.0548863
-0.000984759
0.0548863
-0.000492231
0.0548863
0.05488
-0.0120375
0.0545029
-0.0116867
0.0544568
-0.0112703
0.0544689
-0.0108529
0.0544689
-0.0104355
0.0544689
-0.0100181
0.0544689
-0.00960067
0.0544689
-0.00918325
0.0544689
-0.00876583
0.0544689
-0.00834841
0.0544689
-0.00793099
0.0544689
-0.00751357
0.0544689
-0.00709615
0.0544689
-0.00667873
0.0544689
-0.00626131
0.0544689
-0.00584389
0.0544689
-0.00542647
0.0544689
-0.00500905
0.0544689
-0.00459162
0.0544689
-0.0041742
0.0544689
-0.00375678
0.0544689
-0.00333936
0.0544689
-0.00292194
0.0544689
-0.00250452
0.0544689
-0.0020871
0.0544689
-0.00166968
0.0544689
-0.00125226
0.0544689
-0.000834757
0.0544689
-0.000417256
0.0544689
0.0544626
-0.0114767
0.0541014
-0.011142
0.0540598
-0.010745
0.0540709
-0.010347
0.0540709
-0.00994906
0.0540709
-0.0095511
0.0540709
-0.00915313
0.0540709
-0.00875517
0.0540709
-0.00835721
0.0540709