/*--------------------------------*- C++ -*----------------------------------*\
| =========                 |                                                 |
| \\      /  F ield         | OpenFOAM: The Open Source CFD Toolbox           |
|  \\    /   O peration     | Version:  2112                                  |
|   \\  /    A nd           | Website:  www.openfoam.com                      |
|    \\/     M anipulation  |                                                 |
\*---------------------------------------------------------------------------*/
FoamFile
{
    version     2.0;
    format      ascii;
    arch        "LSB;label=32;scalar=64";
    class       volVectorField;
    location    "1e-05";
    object      U;
}
// * * * * * * * * * * * * * * * * * * * * * * * * * * * * * * * * * * * * * //

dimensions      [0 1 -1 0 0 0 0];

internalField   nonuniform List<vector> 
13875
(
(1463.09 34.2742 3.55797e-18)
(1461.87 1.12555 -1.79545e-18)
(1462.11 0.368848 -1.77075e-18)
(1462.16 0.0258454 0)
(1462.1 0.00889652 0)
(1462.08 0.00398138 1.7726e-18)
(1462.07 0.00323457 -1.77313e-18)
(1462.07 0.0029317 -8.86511e-19)
(1462.05 0.00280501 8.85963e-19)
(1462.05 0.00237166 0)
(1462.04 0.00176118 -6.07773e-22)
(1462.03 8.60017e-05 -6.07778e-22)
(1462.03 -0.00214359 0)
(1462.04 -0.00295208 -8.8604e-19)
(1462.05 -0.00223718 8.86662e-19)
(1462.06 -0.00254796 0)
(1462.07 -0.00390194 1.77306e-18)
(1462.08 -0.00369696 -1.7737e-18)
(1462.1 -0.0033625 6.07593e-22)
(1462.12 -0.0039989 -6.07419e-22)
(1462.13 -0.00901902 -1.77264e-18)
(1462.16 -0.0309567 1.77207e-18)
(1462.14 -0.374277 -3.53991e-18)
(1461.92 -1.05959 3.55044e-18)
(1463.12 -34.1894 3.5836e-18)
(769.953 9.81806 -2.10901e-18)
(767.705 -1.87689 2.11064e-18)
(768.172 0.124042 1.05076e-18)
(768.241 0.00308859 -1.04993e-18)
(768.245 0.004496 3.12507e-22)
(768.246 0.00226636 8.90957e-22)
(768.246 0.00184135 3.12573e-22)
(768.244 0.00167917 -5.25096e-19)
(768.242 0.00150386 5.25673e-19)
(768.241 0.00137827 2.62235e-19)
(768.238 0.0010875 -1.96019e-19)
(768.237 0.000222788 -6.41203e-20)
(768.235 -0.000725028 0)
(768.234 -0.000998209 -5.25961e-19)
(768.229 -0.000499903 5.24759e-19)
(768.226 -0.000445993 5.25073e-19)
(768.224 -0.000964777 -5.25075e-19)
(768.22 -0.000944831 8.90982e-22)
(768.218 -0.00135612 -8.90965e-22)
(768.216 -0.00193576 8.90899e-22)
(768.211 -0.00401666 -1.05e-18)
(768.198 -0.00549194 3.15062e-18)
(768.13 -0.126163 -2.0994e-18)
(767.673 1.9248 8.9054e-22)
(770.036 -9.76454 -2.12022e-18)
(121.9 0.53085 0)
(124.635 -0.477975 0)
(124.907 0.00916266 0)
(124.912 0.000237557 0)
(124.914 0.000906223 -6.33212e-19)
(124.915 0.000598178 6.32803e-19)
(124.915 0.000479683 6.32628e-19)
(124.915 0.000453699 -9.49238e-19)
(124.914 0.000433614 3.1684e-19)
(124.914 0.000401893 4.29422e-22)
(124.913 0.00037756 -1.58203e-19)
(124.912 0.000286988 1.57573e-19)
(124.911 0.000178807 0)
(124.91 0.000143668 0)
(124.908 0.000229572 4.29407e-22)
(124.907 0.000272493 0)
(124.906 0.000190249 2.29906e-22)
(124.904 0.000180993 1.58191e-19)
(124.903 8.19552e-05 -1.58191e-19)
(124.901 -2.71874e-06 0)
(124.899 -0.000261669 0)
(124.894 -1.12257e-05 0)
(124.886 -0.00893722 0)
(124.611 0.48395 0)
(121.939 -0.525056 0)
(14.7085 -0.0143183 0)
(15.2009 -0.0309238 3.63836e-19)
(15.225 -0.000679721 -7.27226e-19)
(15.2248 2.74838e-05 7.27227e-19)
(15.2249 6.29263e-05 -3.63613e-19)
(15.2249 5.99655e-05 0)
(15.2249 5.86902e-05 -2.70527e-22)
(15.2249 5.86894e-05 0)
(15.2248 5.84401e-05 0)
(15.2247 5.81001e-05 0)
(15.2247 5.79256e-05 0)
(15.2246 5.70821e-05 -2.7052e-22)
(15.2245 5.60825e-05 -1.13628e-20)
(15.2244 5.5447e-05 1.13627e-20)
(15.2243 5.65055e-05 0)
(15.2242 5.73976e-05 0)
(15.2241 5.64425e-05 8.23729e-23)
(15.224 5.61761e-05 -1.82154e-19)
(15.2239 5.47093e-05 1.81801e-19)
(15.2238 5.36775e-05 -3.63601e-19)
(15.2236 5.17758e-05 3.636e-19)
(15.2233 8.3539e-05 3.63598e-19)
(15.2232 0.000785603 -3.63602e-19)
(15.1987 0.030893 0)
(14.7083 0.0142617 0)
(10.0388 -0.00211413 3.62583e-19)
(10.0692 -0.00235517 0)
(10.0701 -5.00555e-05 0)
(10.0701 -9.00569e-07 0)
(10.0701 9.19293e-07 0)
(10.0701 9.27789e-07 3.53026e-22)
(10.0701 9.2202e-07 3.53026e-22)
(10.0701 9.2459e-07 9.0732e-20)
(10.0701 9.2257e-07 -9.0026e-20)
(10.0701 9.1481e-07 4.48365e-20)
(10.0701 9.16032e-07 -4.55426e-20)
(10.0701 9.08755e-07 0)
(10.0701 8.97888e-07 0)
(10.0701 8.96171e-07 -3.53027e-22)
(10.0701 9.107e-07 0)
(10.0701 9.20988e-07 -3.53027e-22)
(10.0701 9.06762e-07 1.8005e-19)
(10.0701 9.04605e-07 -1.8005e-19)
(10.0701 8.87218e-07 3.6187e-19)
(10.0701 8.77245e-07 -3.61517e-19)
(10.0701 9.09871e-07 3.53027e-22)
(10.0701 2.91034e-06 0)
(10.0701 5.54779e-05 0)
(10.0691 0.00265549 0)
(10.0384 0.00239132 0)
(9.99752 -0.000797408 0)
(10.001 -0.000854695 1.8111e-19)
(10.001 -1.04101e-05 -1.81e-19)
(10.001 -5.51193e-07 0)
(10.001 5.29107e-09 1.80997e-19)
(10.001 1.60933e-08 -9.08523e-20)
(10.001 1.67153e-08 -3.53528e-22)
(10.001 1.67552e-08 -4.56031e-20)
(10.001 1.67452e-08 -9.08528e-20)
(10.001 1.66448e-08 3.42908e-20)
(10.001 1.66812e-08 3.53531e-22)
(10.001 1.66111e-08 5.62087e-20)
(10.001 1.6503e-08 -4.52498e-20)
(10.001 1.65113e-08 7.07046e-22)
(10.001 1.66998e-08 -9.04998e-20)
(10.001 1.6839e-08 9.08534e-20)
(10.001 1.66615e-08 3.53532e-22)
(10.001 1.66179e-08 -3.53533e-22)
(10.001 1.64023e-08 -3.53533e-22)
(10.001 1.71292e-08 -1.81e-19)
(10.001 3.25632e-08 1.80647e-19)
(10.001 8.11755e-07 0)
(10.001 1.43271e-05 0)
(10.001 0.00118227 -3.62245e-19)
(9.99984 0.00110104 -1.50569e-23)
(9.99966 0.000148158 -1.13483e-20)
(10 0.000151015 1.13125e-20)
(10 1.65873e-06 0)
(10 4.66187e-08 -5.52351e-24)
(10 1.32684e-09 -5.52356e-24)
(10 3.30325e-10 0)
(10 2.6343e-10 0)
(10 2.64731e-10 -1.80996e-19)
(10 2.64746e-10 1.81003e-19)
(10 2.59632e-10 0)
(10 2.61875e-10 3.62013e-19)
(10 2.60935e-10 3.53532e-22)
(10 2.5761e-10 -3.62019e-19)
(10 2.59955e-10 -3.59062e-22)
(10 2.6409e-10 0)
(10 2.66705e-10 7.24054e-19)
(10 2.60926e-10 5.52418e-24)
(10 2.60044e-10 -1.44814e-18)
(10 2.20168e-10 7.24083e-19)
(10 -1.92478e-09 5.5244e-24)
(10 -3.80368e-08 0)
(10 -1.88214e-06 7.24103e-19)
(10 -3.33063e-05 -7.24125e-19)
(9.99996 -0.00276968 7.24346e-19)
(9.9991 -0.00256605 -7.26139e-19)
(9.99615 0.00342113 1.97631e-22)
(9.99986 0.00366382 -1.44567e-18)
(10 4.46378e-05 1.76429e-22)
(10 2.39494e-06 5.5137e-24)
(10 4.95273e-08 -1.70923e-22)
(10 2.80519e-09 0)
(10 5.16592e-11 -7.22672e-19)
(10 5.99027e-12 7.2266e-19)
(10 4.32735e-12 0)
(10 4.24979e-12 -1.76429e-22)
(10 4.29654e-12 -1.76427e-22)
(10 4.29344e-12 0)
(10 4.24504e-12 0)
(10 4.2617e-12 -3.47331e-22)
(10 4.30734e-12 -1.76421e-22)
(10 4.36205e-12 5.51309e-24)
(10 4.2795e-12 -1.8193e-22)
(10 3.10524e-12 -5.51299e-24)
(10 -3.05106e-11 -3.61296e-19)
(10 -2.04322e-09 -5.51285e-24)
(10 -3.64099e-08 3.61465e-19)
(10 -1.73922e-06 1.81922e-22)
(10 -3.32475e-05 7.22573e-19)
(9.99988 -0.00270615 -7.22702e-19)
(9.99291 -0.00253058 5.52607e-24)
(9.95896 0.00071267 1.80836e-19)
(9.99945 0.000293424 0)
(9.99997 -1.70952e-05 -1.76115e-22)
(10 -4.42539e-07 -1.80345e-19)
(10 -3.34213e-08 3.60875e-19)
(10 -6.76425e-10 -3.60775e-19)
(10 -3.23567e-11 8.80803e-23)
(10 -6.69251e-13 1.8039e-19)
(10 -3.00088e-14 0)
(10 -7.11758e-15 -1.80127e-19)
(10 -5.51071e-15 1.80568e-19)
(10 5.02796e-15 0)
(10 1.20751e-14 0)
(10 -3.27543e-14 4.40418e-22)
(10 5.26799e-16 1.76168e-22)
(10 -1.39621e-14 1.80398e-19)
(10 1.65827e-14 -1.80222e-19)
(10 1.46207e-12 0)
(10 5.50845e-11 1.80401e-19)
(10 1.92761e-09 -3.60716e-19)
(10 5.69572e-08 1.80186e-19)
(10 1.53277e-06 -1.76136e-22)
(9.99997 3.77067e-05 0)
(9.99947 0.00121947 0)
(9.9609 0.0007035 0)
(9.9251 -0.0381 -1.25798e-17)
(9.98466 -0.0423418 1.25682e-17)
(9.99968 -0.000816425 0)
(9.99999 -3.82498e-05 -6.26318e-18)
(10 -1.08576e-06 6.26234e-18)
(10 -5.07658e-08 0)
(10 -1.15848e-09 -6.21057e-21)
(10 -3.63636e-11 -3.13105e-18)
(10 -8.31814e-13 3.12439e-18)
(10 -1.84884e-14 -6.20869e-21)
(10 3.25083e-14 0)
(10 -5.01703e-15 -7.82212e-19)
(10 -1.70304e-14 1.16696e-18)
(10 -5.45458e-15 -3.97148e-19)
(10 -3.11832e-15 -6.10719e-21)
(10 4.82976e-14 0)
(10 8.074e-13 0)
(10 3.54544e-11 -6.24905e-18)
(10 1.1388e-09 6.2399e-18)
(10 4.92867e-08 -6.24452e-18)
(10 1.06583e-06 6.23521e-18)
(9.99999 3.70696e-05 6.23968e-18)
(9.99969 0.000795568 -6.2321e-18)
(9.98553 0.0410181 -1.24978e-17)
(9.92423 0.0367684 -1.79581e-20)
(9.92504 -0.0676634 -1.42326e-17)
(9.95975 -0.0738108 1.4247e-17)
(9.99913 -0.00161786 0)
(9.99995 -8.57816e-05 1.42156e-17)
(10 -2.63963e-06 -1.42174e-17)
(10 -1.36023e-07 -7.11296e-18)
(10 -3.3798e-09 7.12422e-18)
(10 -1.15108e-10 -7.12315e-18)
(10 -2.76127e-12 7.12717e-18)
(10 -9.82839e-14 6.96396e-21)
(10 1.18646e-14 0)
(10 -9.02897e-15 -4.46177e-19)
(10 -3.56483e-14 4.53363e-19)
(10 9.32424e-15 6.97804e-21)
(10 2.79519e-14 6.98129e-21)
(10 8.65645e-14 6.98411e-21)
(10 3.11264e-12 0)
(10 1.29053e-10 0)
(10 3.77112e-09 -1.43089e-17)
(10 1.49961e-07 1.43212e-17)
(10 2.89894e-06 -1.43262e-17)
(9.99995 9.28928e-05 2.86692e-17)
(9.99901 0.00174251 -1.43435e-17)
(9.95545 0.0775841 -7.01267e-21)
(9.91936 0.071158 7.05263e-21)
(9.92546 -0.088126 -1.56839e-17)
(9.94183 -0.0949539 3.99072e-20)
(9.99864 -0.00232525 3.12498e-17)
(9.99992 -0.000135255 -1.56392e-17)
(10 -4.5519e-06 0)
(10 -2.55439e-07 1.56394e-17)
(10 -6.97498e-09 -1.56429e-17)
(10 -2.57239e-10 0)
(10 -6.80422e-12 7.64118e-21)
(10 -2.07348e-13 0)
(10 3.61893e-14 0)
(10 8.12966e-15 0)
(10 -1.66726e-15 9.78395e-19)
(10 -9.8049e-15 -9.78433e-19)
(10 3.45941e-15 -7.64405e-21)
(10 1.98686e-13 -7.64595e-21)
(10 6.69122e-12 0)
(10 2.55947e-10 0)
(10 6.90504e-09 0)
(10 2.55318e-07 -1.56559e-17)
(10 4.50955e-06 3.13241e-17)
(9.99992 0.000135433 -1.5668e-17)
(9.99865 0.00231473 -1.5653e-17)
(9.94132 0.0955064 1.56778e-17)
(9.92951 0.0888325 -7.69128e-21)
(9.92599 -0.104708 1.70437e-17)
(9.93009 -0.112062 0)
(9.99822 -0.00304236 0)
(9.99989 -0.000188672 -1.69174e-17)
(10 -6.94085e-06 1.69176e-17)
(10 -4.17138e-07 0)
(10 -1.24816e-08 2.06505e-21)
(10 -4.94211e-10 8.45806e-18)
(10 -1.42198e-11 -8.45541e-18)
(10 -4.84852e-13 0)
(10 -1.33848e-14 -2.11394e-18)
(10 4.61297e-15 2.11462e-18)
(10 4.68406e-15 -1.05619e-18)
(10 -2.86283e-14 1.05792e-18)
(10 5.82877e-14 8.24681e-21)
(10 4.38709e-13 -8.44666e-18)
(10 1.29225e-11 1.68897e-17)
(10 4.59058e-10 1.33812e-28)
(10 1.15152e-08 -8.43797e-18)
(10 3.94626e-07 -1.68697e-17)
(10 6.47957e-06 1.68527e-17)
(9.99989 0.000181115 1.02881e-20)
(9.99836 0.00289737 2.05691e-21)
(9.9327 0.110158 1.69072e-17)
(9.93572 0.103142 5.17844e-20)
(9.93926 -0.115548 0)
(9.92803 -0.122866 0)
(9.99808 -0.00355991 0)
(9.99987 -0.000233367 0)
(10 -9.17106e-06 0)
(10 -5.90669e-07 1.79008e-17)
(10 -1.9026e-08 -1.78877e-17)
(10 -8.09412e-10 1.74513e-20)
(10 -2.5166e-11 -2.17947e-21)
(10 -9.3475e-13 4.45955e-18)
(10 -5.56934e-14 -4.47174e-18)
(10 2.27135e-14 -3.69296e-20)
(10 2.10855e-15 -1.38907e-19)
(10 -1.32197e-15 1.53929e-19)
(10 1.25735e-14 -4.4353e-18)
(10 7.61489e-13 4.43267e-18)
(10 2.09201e-11 1.51339e-20)
(10 6.73381e-10 0)
(10 1.60475e-08 0)
(10 5.02209e-07 0)
(10 7.93641e-06 -1.76267e-17)
(9.9999 0.000204047 1.49919e-20)
(9.99843 0.00317165 1.75861e-17)
(9.93986 0.112407 2.14682e-21)
(9.94367 0.105336 2.15883e-21)
(9.94893 -0.111384 0)
(9.94279 -0.118504 4.53984e-21)
(9.99838 -0.00366182 0)
(9.99989 -0.000243682 -1.85984e-17)
(10 -1.0395e-05 3.7233e-17)
(10 -6.87605e-07 -1.86298e-17)
(10 -2.41334e-08 0)
(10 -1.07106e-09 -1.82225e-20)
(10 -3.6463e-11 0)
(10 -1.43215e-12 0)
(10 -3.33695e-14 -2.31443e-18)
(10 -9.01445e-15 2.37093e-18)
(10 2.77522e-14 2.33996e-18)
(10 4.64866e-14 -2.35969e-18)
(10 3.23679e-14 0)
(10 1.77473e-12 -9.38107e-18)
(10 4.64934e-11 9.368e-18)
(10 1.32825e-09 9.39599e-18)
(10 2.99677e-08 -9.39627e-18)
(10 8.19238e-07 0)
(9.99999 1.25363e-05 0)
(9.99986 0.000280101 -1.83788e-20)
(9.9979 0.0042231 -1.88289e-17)
(9.93242 0.127935 3.78018e-17)
(9.92579 0.119918 -1.89463e-17)
(9.955 -0.129348 -2.01845e-17)
(9.93454 -0.137095 2.01998e-17)
(9.99794 -0.00471451 0)
(9.99985 -0.000331941 -2.01158e-17)
(9.99999 -1.55855e-05 -4.9109e-21)
(10 -1.1e-06 3.02342e-17)
(10 -4.24937e-08 -2.01805e-17)
(10 -2.02244e-09 1.0099e-17)
(10 -7.55466e-11 0)
(10 -3.1335e-12 0)
(10 -8.64e-14 -4.94462e-21)
(10 -2.82354e-14 1.48421e-20)
(10 2.64002e-14 0)
(10 7.70883e-15 0)
(10 1.28427e-13 5.07626e-18)
(10 3.80159e-12 -5.07941e-18)
(10 8.97322e-11 -1.01648e-17)
(10 2.38389e-09 2.03264e-17)
(10 4.95391e-08 1.43447e-26)
(10 1.26735e-06 -1.01717e-17)
(9.99999 1.77315e-05 0)
(9.99982 0.000373211 0)
(9.99753 0.00521726 -2.04053e-17)
(9.92293 0.148583 2.04625e-17)
(9.95081 0.140434 -5.03142e-21)
(10.0258 -0.0931617 2.03394e-17)
(9.97231 -0.0977915 -9.87715e-21)
(9.99928 -0.00311407 1.00877e-17)
(9.99994 -0.000226594 -1.00941e-17)
(10 -1.05307e-05 -4.92331e-21)
(10 -7.98524e-07 9.84533e-21)
(10 -3.12927e-08 1.00802e-17)
(10 -1.5844e-09 -1.5118e-17)
(10 -6.21816e-11 5.04348e-18)
(10 -2.81989e-12 0)
(10 -1.54484e-13 -2.51408e-18)
(10 4.5442e-15 2.51305e-18)
(10 -5.29647e-15 0)
(10 3.09381e-14 4.91587e-21)
(10 1.05478e-13 -2.51136e-18)
(10 2.587e-12 2.51557e-18)
(10 5.7006e-11 0)
(10 1.47229e-09 -1.00469e-17)
(10 2.88677e-08 1.00538e-17)
(10 7.52925e-07 1.0041e-17)
(10 9.75812e-06 -2.01004e-17)
(9.99995 0.000215803 1.00495e-17)
(9.99939 0.00293047 0)
(9.97415 0.095331 2.01663e-17)
(10.0399 0.090955 4.12635e-20)
(10.0897 -0.0267157 7.26505e-21)
(9.99972 -0.0281934 1.00512e-17)
(10.0001 -0.000863276 -5.0105e-18)
(10 -6.38923e-05 -5.0076e-18)
(10 -3.06604e-06 7.51503e-18)
(10 -2.34301e-07 -5.00552e-18)
(10 -9.37501e-09 5.0057e-18)
(10 -4.84891e-10 -5.00406e-18)
(10 -1.97079e-11 -4.88577e-21)
(10 -8.92467e-13 2.50099e-18)
(10 -1.40819e-14 1.24545e-18)
(10 -1.10303e-14 -4.27238e-21)
(10 -5.21085e-14 -1.25055e-18)
(10 1.74023e-15 -4.27065e-21)
(10 1.60312e-14 -5.4909e-21)
(10 4.40156e-13 -1.5615e-19)
(10 9.8064e-12 -3.93952e-32)
(10 2.40066e-10 4.68213e-19)
(10 4.6456e-09 -3.1204e-19)
(10 1.17441e-07 0)
(10 1.51393e-06 1.25245e-18)
(10 3.17203e-05 -3.74703e-18)
(10.0001 0.000434607 4.98991e-18)
(10.0012 0.0144157 -7.50761e-18)
(10.0818 0.0137032 7.53467e-18)
(10.0585 0.105815 -1.96639e-20)
(9.9659 0.110288 -2.02414e-20)
(9.99908 0.00368834 2.01848e-20)
(9.99993 0.00026269 -6.30312e-22)
(10 1.24905e-05 -1.95277e-20)
(10 9.56883e-07 -2.07748e-20)
(10 3.7933e-08 -6.29145e-22)
(10 1.94595e-09 0)
(10 7.73561e-11 0)
(10 3.53403e-12 5.1239e-18)
(10 1.42096e-13 -5.13973e-18)
(10 -1.77453e-14 -6.27088e-22)
(10 -4.08818e-14 6.26503e-22)
(10 2.6705e-14 -6.61754e-19)
(10 -6.2281e-14 6.41574e-19)
(10 -2.69152e-12 0)
(10 -5.76648e-11 0)
(10 -1.47904e-09 -5.11603e-18)
(10 -2.88294e-08 5.09172e-18)
(10 -7.52153e-07 -1.99547e-20)
(10 -9.6937e-06 0)
(9.99996 -0.000212083 0)
(9.99948 -0.00297841 -2.05311e-20)
(9.97612 -0.0941961 -2.05611e-20)
(10.065 -0.0904257 2.04973e-17)
(9.9333 0.153273 -2.10181e-17)
(9.90901 0.161937 -2.09713e-17)
(9.99658 0.00659731 2.09519e-17)
(9.99976 0.000445146 0)
(9.99999 2.2851e-05 2.05001e-20)
(10 1.57782e-06 1.05234e-17)
(10 6.48043e-08 -2.10187e-17)
(10 3.08095e-09 1.05155e-17)
(10 1.19177e-10 -1.05317e-17)
(10 4.98465e-12 1.05475e-17)
(10 1.39691e-13 2.62212e-18)
(10 -1.15099e-14 -3.28172e-18)
(10 -3.08019e-14 -6.58686e-19)
(10 1.01683e-14 1.32798e-18)
(10 -1.95831e-13 0)
(10 -5.30235e-12 0)
(10 -1.26761e-10 1.0557e-17)
(10 -3.28042e-09 -2.112e-17)
(10 -6.83844e-08 1.05833e-17)
(10 -1.66824e-06 2.0633e-20)
(9.99999 -2.38377e-05 2.11444e-17)
(9.99975 -0.000465934 -1.24698e-22)
(9.99637 -0.00681628 -6.33905e-17)
(9.90267 -0.16776 6.35015e-17)
(9.94034 -0.159201 -2.13556e-17)
(9.9101 0.122606 9.29848e-21)
(9.92845 0.131069 -1.90032e-17)
(9.99745 0.00490835 1.89849e-17)
(9.99984 0.000302945 0)
(9.99999 1.44544e-05 0)
(10 9.00561e-07 0)
(10 3.41687e-08 0)
(10 1.47927e-09 0)
(10 5.26557e-11 -4.76176e-18)
(10 1.93218e-12 9.54023e-18)
(10 7.30556e-14 -7.16755e-18)
(10 1.71441e-14 2.67982e-18)
(10 -2.52516e-14 -2.98995e-19)
(10 1.63964e-14 1.92589e-36)
(10 -6.17184e-14 -4.79164e-18)
(10 -2.399e-12 4.79469e-18)
(10 -6.30311e-11 0)
(10 -1.74692e-09 0)
(10 -4.00745e-08 -1.92032e-17)
(10 -1.03562e-06 1.92213e-17)
(9.99999 -1.6543e-05 -1.8782e-20)
(9.99981 -0.000338739 9.39567e-21)
(9.99697 -0.00544327 -9.40032e-21)
(9.91814 -0.13996 -9.4212e-21)
(9.89791 -0.131019 0)
(9.92733 0.0970618 -1.73506e-17)
(9.9474 0.104111 1.72091e-17)
(9.99839 0.00332885 -1.68314e-20)
(9.9999 0.000192208 1.72398e-17)
(10 8.08773e-06 -1.72437e-17)
(10 4.74734e-07 0)
(10 1.59268e-08 -8.62532e-18)
(10 6.43292e-10 8.61843e-18)
(10 2.0564e-11 -4.31412e-18)
(10 7.08559e-13 8.64634e-18)
(10 2.28698e-14 -4.30676e-18)
(10 3.93661e-14 1.68538e-20)
(10 -2.88808e-14 0)
(10 4.77176e-15 2.16618e-18)
(10 -2.55681e-14 2.1584e-18)
(10 -7.77465e-13 -4.30856e-18)
(10 -2.2277e-11 -8.64267e-18)
(10 -6.86763e-10 8.64278e-18)
(10 -1.70374e-08 -8.64274e-18)
(10 -4.98073e-07 8.63413e-18)
(10 -8.55184e-06 8.43146e-21)
(9.9999 -0.00019918 -8.43103e-21)
(9.99827 -0.00345848 0)
(9.94567 -0.105468 8.44222e-21)
(9.91758 -0.0980361 0)
(9.94174 0.0759948 1.58923e-17)
(9.96305 0.0818167 -1.57801e-17)
(9.99901 0.00224838 6.7475e-21)
(9.99995 0.000122531 0)
(10 4.5781e-06 0)
(10 2.55788e-07 -9.63089e-22)
(10 7.64611e-09 0)
(10 2.91069e-10 7.69965e-21)
(10 8.41862e-12 0)
(10 2.75202e-13 3.93176e-18)
(10 1.83591e-14 -5.9056e-18)
(10 2.56594e-16 2.93661e-18)
(10 2.31558e-15 -9.82333e-19)
(10 2.58222e-15 0)
(10 6.25334e-15 0)
(10 -2.54679e-13 3.92155e-18)
(10 -7.69024e-12 -1.17788e-17)
(10 -2.65484e-10 7.84586e-18)
(10 -6.9909e-09 -7.85095e-18)
(10 -2.35503e-07 7.84542e-18)
(10 -4.22221e-06 0)
(9.99995 -0.000114008 0)
(9.99912 -0.00209457 0)
(9.96664 -0.0777213 -9.57097e-22)
(9.94528 -0.0720982 -1.57073e-17)
(9.9625 0.0578954 -2.67787e-21)
(9.97624 0.0623759 1.45937e-17)
(9.99947 0.00144142 -1.45791e-17)
(9.99997 7.59769e-05 0)
(10 2.48728e-06 0)
(10 1.3582e-07 8.90422e-22)
(10 3.58086e-09 7.29902e-18)
(10 1.3097e-10 -7.29296e-18)
(10 3.44961e-12 3.56325e-21)
(10 1.01373e-13 3.56372e-21)
(10 1.16674e-14 3.56252e-21)
(10 4.72424e-15 -8.9089e-22)
(10 2.0844e-15 -8.90825e-22)
(10 5.50339e-15 1.82105e-18)
(10 1.60527e-14 -1.82872e-18)
(10 -1.06954e-13 4.45748e-21)
(10 -3.48674e-12 4.45783e-21)
(10 -1.33174e-10 0)
(10 -3.6231e-09 -7.30026e-18)
(10 -1.38425e-07 7.30247e-18)
(10 -2.51522e-06 0)
(9.99997 -7.74166e-05 -1.46116e-17)
(9.99946 -0.00146196 1.46114e-17)
(9.97536 -0.0636058 8.92749e-22)
(9.96493 -0.0591529 -1.46612e-17)
(9.9714 0.0526194 3.39966e-21)
(9.97863 0.0566149 0)
(9.99958 0.00117297 0)
(9.99998 6.05361e-05 -6.95317e-18)
(10 1.79076e-06 6.9472e-18)
(10 9.66737e-08 0)
(10 2.30493e-09 6.94532e-18)
(10 8.20949e-11 -6.95279e-18)
(10 1.95725e-12 3.47841e-18)
(10 5.88179e-14 -3.47789e-18)
(10 -1.72984e-14 1.73357e-18)
(10 3.04214e-14 -1.74416e-18)
(10 2.07586e-15 0)
(10 -2.26283e-14 -1.73395e-18)
(10 -2.79204e-15 1.7412e-18)
(10 -8.20786e-14 -3.39512e-21)
(10 -2.04615e-12 -3.39525e-21)
(10 -8.45964e-11 6.79073e-21)
(10 -2.38317e-09 6.95048e-18)
(10 -9.91271e-08 -6.95061e-18)
(10 -1.84754e-06 -6.79111e-21)
(9.99998 -6.18437e-05 -6.79115e-21)
(9.99956 -0.00120399 0)
(9.97801 -0.0573525 -6.797e-21)
(9.96839 -0.0532435 3.40465e-21)
(9.9717 0.0455236 1.26154e-23)
(9.98234 0.0491662 0)
(9.99968 0.000939164 1.25752e-23)
(9.99998 4.69539e-05 6.42528e-21)
(10 1.29659e-06 -1.25719e-23)
(10 6.78076e-08 -6.59015e-18)
(10 1.50905e-09 6.58899e-18)
(10 5.1881e-11 0)
(10 1.16434e-12 -6.43221e-21)
(10 6.01309e-14 -1.25577e-23)
(10 1.85851e-14 -1.25521e-23)
(10 1.64492e-14 6.43867e-21)
(10 -6.58652e-15 0)
(10 -1.54603e-14 0)
(10 -1.71378e-14 -1.25445e-23)
(10 -3.65315e-14 -1.25448e-23)
(10 -1.09471e-12 -3.28781e-18)
(10 -4.82366e-11 9.85468e-18)
(10 -1.40038e-09 -6.5725e-18)
(10 -6.36128e-08 0)
(10 -1.21032e-06 -6.56287e-18)
(9.99999 -4.43737e-05 6.57405e-18)
(9.99971 -0.0008837 1.25228e-23)
(9.98377 -0.0471996 6.41516e-21)
(9.97474 -0.0437173 1.25506e-23)
(9.97862 0.0377737 -2.40273e-20)
(9.98685 0.0408565 -1.80925e-20)
(9.99979 0.000696871 1.25301e-17)
(9.99999 3.43752e-05 -6.27359e-18)
(10 8.66067e-07 6.26329e-18)
(10 4.48251e-08 -6.27129e-18)
(10 9.13311e-10 6.27315e-18)
(10 3.07202e-11 -3.13749e-18)
(10 6.2062e-13 3.1384e-18)
(10 3.67849e-14 1.19743e-23)
(10 1.0336e-14 1.19759e-23)
(10 -3.68344e-14 -1.1978e-23)
(10 1.74452e-14 7.79059e-19)
(10 -5.4951e-15 7.85489e-19)
(10 -1.3372e-14 -1.57717e-18)
(10 -1.5369e-14 1.19921e-23)
(10 -6.97874e-13 6.29037e-18)
(10 -3.38749e-11 -1.25777e-17)
(10 -1.00363e-09 6.29348e-18)
(10 -4.89723e-08 0)
(10 -9.44425e-07 -1.20096e-23)
(9.99999 -3.72462e-05 1.20125e-23)
(9.99975 -0.000754678 -1.20145e-23)
(9.98504 -0.0435536 -1.25911e-17)
(9.9778 -0.0403158 1.26484e-17)
(9.98186 0.0350797 1.18087e-20)
(9.98782 0.0379418 0)
(9.99982 0.000600035 0)
(9.99999 2.92294e-05 5.89119e-21)
(10 6.85397e-07 1.17819e-20)
(10 3.51776e-08 0)
(10 6.6802e-10 6.02584e-18)
(10 2.21149e-11 -6.0373e-18)
(10 4.37877e-13 5.88971e-21)
(10 6.63239e-15 -5.88744e-21)
(10 -6.18969e-15 -1.50755e-18)
(10 -4.24877e-15 1.51279e-18)
(10 2.56518e-15 3.88478e-19)
(10 -4.32578e-15 -3.7672e-19)
(10 -1.12755e-14 1.51263e-18)
(10 -1.35137e-14 -4.51888e-18)
(10 -4.12204e-13 3.00786e-18)
(10 -2.1845e-11 -5.88569e-21)
(10 -6.66813e-10 5.88514e-21)
(10 -3.4643e-08 -6.02579e-18)
(10 -6.85606e-07 -5.88382e-21)
(9.99999 -2.87797e-05 2.75774e-24)
(9.99982 -0.000597686 6.02945e-18)
(9.98821 -0.0372494 5.88566e-21)
(9.97785 -0.0343231 5.89402e-21)
(9.97886 0.0308304 1.16359e-17)
(9.98976 0.0335313 -1.15914e-17)
(9.99985 0.000503808 0)
(9.99999 2.38699e-05 -5.79681e-18)
(10 5.36186e-07 -5.6596e-21)
(10 2.66707e-08 5.79522e-18)
(10 4.84773e-10 5.79652e-18)
(10 1.55806e-11 -5.78508e-18)
(10 3.32951e-13 -5.65349e-21)
(10 1.72807e-14 -2.88685e-18)
(10 -1.92025e-14 1.44756e-18)
(10 -2.57689e-15 1.4413e-18)
(10 2.51832e-14 -5.64468e-21)
(10 1.73125e-14 0)
(10 -1.87814e-14 0)
(10 -2.31608e-15 0)
(10 -2.57817e-13 5.64077e-21)
(10 -1.36612e-11 1.40978e-21)
(10 -4.20541e-10 -7.04679e-21)
(10 -2.37383e-08 0)
(10 -4.69199e-07 5.63404e-21)
(9.99999 -2.14779e-05 1.40808e-21)
(9.99988 -0.000446795 -7.03789e-21)
(9.99132 -0.0309692 -1.15265e-17)
(9.98389 -0.0285275 1.15649e-17)
(9.98454 0.023702 5.55653e-18)
(9.99356 0.0258338 -1.10955e-17)
(9.99992 0.000346455 1.10987e-17)
(10 1.64551e-05 -5.54618e-18)
(10 3.39547e-07 -5.55899e-18)
(10 1.69304e-08 5.55415e-18)
(10 2.83749e-10 2.77465e-18)
(10 9.02803e-12 -2.78511e-18)
(10 1.43491e-13 1.38489e-18)
(10 1.7652e-14 -2.77492e-18)
(10 2.14097e-14 2.0846e-18)
(10 -2.90015e-14 -8.70802e-19)
(10 -1.48191e-14 1.73947e-19)
(10 3.84853e-14 -5.43757e-21)
(10 -1.28769e-14 2.7851e-18)
(10 -1.14305e-14 -2.79132e-18)
(10 -1.86852e-13 5.44549e-21)
(10 -1.06576e-11 5.58208e-18)
(10 -3.33263e-10 6.81128e-21)
(10 -1.97214e-08 -5.57614e-18)
(10 -3.95001e-07 0)
(9.99999 -1.89872e-05 5.58923e-18)
(9.99989 -0.000400243 -5.58525e-18)
(9.99181 -0.0291501 -1.11643e-17)
(9.98394 -0.0268091 1.12285e-20)
(9.9896 0.0225347 -5.40887e-18)
(9.99395 0.0244748 5.39555e-18)
(9.99993 0.000304339 2.63545e-21)
(10 1.45875e-05 -7.90583e-21)
(10 2.79961e-07 2.63498e-21)
(10 1.41516e-08 5.39845e-18)
(10 2.216e-10 -2.69496e-18)
(10 7.07278e-12 -2.69201e-18)
(10 1.1947e-13 5.26749e-21)
(10 -8.51958e-15 -5.26459e-21)
(10 -1.66644e-14 2.6319e-21)
(10 4.17199e-14 -2.63156e-21)
(10 5.36067e-15 0)
(10 -6.03565e-15 0)
(10 4.5171e-15 -1.34429e-18)
(10 1.69263e-14 1.35192e-18)
(10 -1.14547e-13 -2.69946e-18)
(10 -6.74316e-12 -2.6307e-21)
(10 -2.14165e-10 2.69083e-18)
(10 -1.34488e-08 -7.88991e-21)
(10 -2.71563e-07 -5.38542e-18)
(10 -1.38786e-05 5.37677e-18)
(9.99993 -0.000293997 0)
(9.99448 -0.0232911 -5.38563e-18)
(9.9858 -0.021338 5.39864e-18)
(9.98638 0.0207338 0)
(9.99453 0.0226355 -5.2604e-18)
(9.99994 0.000273908 5.25459e-18)
(10 1.28181e-05 2.56674e-21)
(10 2.40011e-07 2.56637e-21)
(10 1.18107e-08 -5.2574e-18)
(10 1.8008e-10 5.25694e-18)
(10 5.60896e-12 2.62712e-18)
(10 9.52632e-14 3.20605e-22)
(10 -4.00323e-15 -2.62484e-18)
(10 -8.50832e-15 -2.56285e-21)
(10 -4.52061e-15 2.88345e-21)
(10 2.81818e-14 0)
(10 1.68683e-14 5.12343e-21)
(10 -1.0043e-15 -2.56188e-21)
(10 -2.47321e-14 1.31118e-18)
(10 -8.33043e-14 -1.31122e-18)
(10 -5.03806e-12 -2.56119e-21)
(10 -1.60212e-10 -2.88086e-21)
(10 -1.07588e-08 2.56033e-21)
(10 -2.14482e-07 -5.24268e-18)
(10 -1.1751e-05 2.56047e-21)
(9.99995 -0.000246995 5.24068e-18)
(9.99526 -0.0211368 0)
(9.99001 -0.0194078 5.24862e-18)
(9.98912 0.0160199 -1.02083e-17)
(9.99657 0.0175281 5.09123e-18)
(9.99996 0.000194459 5.09377e-18)
(10 9.17929e-06 -5.09491e-18)
(10 1.61285e-07 0)
(10 7.97782e-09 -3.11087e-22)
(10 1.14516e-10 0)
(10 3.5418e-12 -3.11204e-22)
(10 5.11437e-14 -3.11192e-22)
(10 1.96714e-14 0)
(10 -1.11593e-14 0)
(10 -2.37715e-14 -3.11362e-22)
(10 1.79491e-14 0)
(10 3.45245e-15 0)
(10 -2.82795e-15 -1.27601e-18)
(10 7.34292e-15 1.27597e-18)
(10 -6.98896e-14 -3.11713e-22)
(10 -4.06247e-12 -2.554e-18)
(10 -1.30743e-10 2.55476e-18)
(10 -9.04302e-09 0)
(10 -1.83239e-07 5.11066e-18)
(10 -1.03534e-05 -1.02231e-17)
(9.99995 -0.000220166 1.02244e-17)
(9.99576 -0.0194852 -4.17396e-21)
(9.98861 -0.0178349 -5.12736e-18)
(9.99315 0.0154498 1.2211e-21)
(9.99674 0.0168389 -1.2193e-21)
(9.99997 0.000175422 0)
(10 8.41232e-06 0)
(10 1.391e-07 0)
(10 7.00194e-09 1.21832e-21)
(10 9.5057e-11 0)
(10 2.97727e-12 -1.21807e-21)
(10 4.55192e-14 0)
(10 3.37761e-15 -1.21753e-21)
(10 1.35953e-14 0)
(10 -3.01692e-14 -3.1155e-19)
(10 -5.85274e-15 3.10363e-19)
(10 1.67313e-14 0)
(10 9.0702e-15 1.2458e-18)
(10 -7.28639e-15 -2.49188e-18)
(10 -5.04509e-14 1.24485e-18)
(10 -2.76099e-12 0)
(10 -8.90914e-11 2.49157e-18)
(10 -6.48999e-09 -2.49128e-18)
(10 -1.30806e-07 4.98076e-18)
(10 -7.80561e-06 -4.98139e-18)
(9.99997 -0.000164649 0)
(9.99715 -0.0156855 0)
(9.99077 -0.0143346 0)
(9.9902 0.0146511 -1.19836e-21)
(9.9969 0.0160442 1.19657e-21)
(9.99997 0.000165015 0)
(10 7.73672e-06 0)
(10 1.26305e-07 0)
(10 6.20398e-09 -1.19584e-21)
(10 8.29676e-11 0)
(10 2.55648e-12 1.19564e-21)
(10 4.43143e-14 0)
(10 8.51771e-16 -1.22264e-18)
(10 -9.77253e-15 1.22296e-18)
(10 -8.81864e-15 -1.19494e-21)
(10 2.49269e-14 1.19457e-21)
(10 -6.06826e-16 1.19473e-21)
(10 -5.96924e-15 0)
(10 -1.32337e-14 0)
(10 -1.75655e-14 1.19439e-21)
(10 -2.32728e-12 -2.44643e-18)
(10 -7.47883e-11 2.44619e-18)
(10 -5.7307e-09 0)
(10 -1.14076e-07 1.1942e-21)
(10 -7.17493e-06 0)
(9.99997 -0.000150146 0)
(9.99728 -0.0151018 0)
(9.99356 -0.0138358 0)
(9.99163 0.0112186 -4.79422e-18)
(9.99811 0.0123133 4.7818e-18)
(9.99998 0.000118011 0)
(10 5.59566e-06 -2.3374e-21)
(10 8.68988e-08 0)
(10 4.29771e-09 -2.39427e-18)
(10 5.47571e-11 4.78697e-18)
(10 1.68547e-12 -2.3927e-18)
(10 5.87302e-15 -1.19978e-18)
(10 -1.31108e-14 1.19737e-18)
(10 2.02102e-14 5.84744e-22)
(10 2.13344e-14 1.55601e-19)
(10 -1.35613e-14 -1.49742e-19)
(10 -9.13009e-15 1.19252e-18)
(10 1.29409e-14 -1.19833e-18)
(10 4.12137e-15 0)
(10 -4.24673e-14 -2.34169e-21)
(10 -2.01208e-12 0)
(10 -6.5136e-11 0)
(10 -5.05689e-09 -2.39951e-18)
(10 -1.02872e-07 2.40222e-18)
(10 -6.5582e-06 0)
(9.99998 -0.000139187 4.79868e-18)
(9.99749 -0.0141934 -5.35612e-21)
(9.99099 -0.0129473 -9.62213e-18)
(9.99485 0.0109217 4.71991e-18)
(9.99819 0.0119399 2.30253e-21)
(9.99998 0.000108628 4.71345e-18)
(10 5.25149e-06 -2.35431e-18)
(10 7.74856e-08 -2.35643e-18)
(10 3.90275e-09 0)
(10 4.75115e-11 1.15043e-21)
(10 1.48073e-12 2.35474e-18)
(10 2.95567e-14 -2.35238e-18)
(10 4.64738e-15 0)
(10 -3.41328e-15 0)
(10 -5.8925e-15 -3.44839e-21)
(10 9.05801e-15 4.59752e-21)
(10 -5.39857e-15 2.29867e-21)
(10 9.33687e-15 5.89639e-19)
(10 -1.84463e-14 -5.88334e-19)
(10 -4.18258e-15 1.14925e-21)
(10 -1.33936e-12 2.35402e-18)
(10 -4.4209e-11 -4.70765e-18)
(10 -3.5821e-09 2.35363e-18)
(10 -7.23089e-08 -2.29827e-21)
(10 -4.82033e-06 0)
(9.99999 -0.000101077 2.29784e-21)
(9.99845 -0.0109907 4.70702e-18)
(9.9924 -0.0100072 -9.43446e-18)
(9.99227 0.0104491 -4.65741e-18)
(9.99826 0.0114735 -4.65042e-18)
(9.99998 0.000103806 4.64784e-18)
(10 4.91847e-06 2.32413e-18)
(10 7.21841e-08 -2.32454e-18)
(10 3.5567e-09 0)
(10 4.29422e-11 5.67304e-22)
(10 1.31128e-12 -1.7018e-21)
(10 1.93997e-14 1.16118e-18)
(10 -6.85406e-15 -2.32218e-18)
(10 3.23683e-15 1.16101e-18)
(10 7.03435e-15 2.89668e-19)
(10 1.05589e-14 -2.71525e-19)
(10 1.14167e-14 2.69803e-19)
(10 -1.48245e-15 -2.91359e-19)
(10 1.91069e-14 0)
(10 -3.47495e-14 1.70002e-21)
(10 -1.19769e-12 -5.66882e-22)
(10 -3.83439e-11 -2.32178e-18)
(10 -3.25376e-09 2.32105e-18)
(10 -6.44929e-08 0)
(10 -4.5114e-06 0)
(9.99999 -9.33446e-05 -5.66666e-22)
(9.99852 -0.0106703 -4.64125e-18)
(9.99524 -0.0097515 2.80674e-21)
(9.99317 0.00779881 -2.29144e-18)
(9.999 0.00858095 2.28493e-18)
(9.99999 7.32166e-05 5.57868e-22)
(10 3.51223e-06 0)
(10 4.95355e-08 2.28618e-18)
(10 2.46219e-09 -2.28366e-18)
(10 2.85951e-11 5.58146e-22)
(10 8.64103e-13 5.58213e-22)
(10 2.00092e-14 2.23249e-21)
(10 1.37174e-14 -2.85747e-19)
(10 7.24953e-15 1.4289e-19)
(10 -6.79107e-15 2.80843e-19)
(10 -2.48247e-14 -1.4349e-19)
(10 1.47264e-14 5.73993e-19)
(10 1.25885e-14 -5.71823e-19)
(10 6.62318e-15 0)
(10 -2.31588e-14 1.67594e-21)
(10 -1.08938e-12 -2.28633e-18)
(10 -3.52685e-11 2.28715e-18)
(10 -3.00391e-09 5.58998e-22)
(10 -6.08609e-08 0)
(10 -4.27639e-06 0)
(9.99999 -8.9649e-05 5.59177e-22)
(9.99857 -0.0102707 -4.58016e-18)
(9.99271 -0.00934654 4.59218e-18)
(9.9959 0.00765161 2.21047e-21)
(9.99904 0.00838451 0)
(9.99999 6.84907e-05 -1.10327e-21)
(10 3.3614e-06 -2.25831e-18)
(10 4.53724e-08 2.26039e-18)
(10 2.29764e-09 -2.26137e-18)
(10 2.57328e-11 2.26014e-18)
(10 8.11042e-13 -1.12945e-18)
(10 -6.77636e-15 1.12686e-18)
(10 -2.31803e-14 -5.64413e-19)
(10 2.38671e-15 5.64379e-19)
(10 6.55508e-15 -2.77817e-19)
(10 2.29321e-14 3.1743e-19)
(10 -2.48869e-15 -3.74721e-20)
(10 -2.35675e-14 5.65355e-19)
(10 -2.42792e-15 -1.12758e-18)
(10 1.00602e-14 -5.66476e-19)
(10 -7.15026e-13 1.1255e-18)
(10 -2.34525e-11 2.20456e-21)
(10 -2.06442e-09 -1.10222e-21)
(10 -4.15003e-08 0)
(10 -3.01804e-06 0)
(9.99999 -6.24731e-05 0)
(9.9992 -0.00755071 -2.25535e-18)
(9.9935 -0.00685597 2.26173e-18)
(9.99359 0.00739033 -2.73581e-22)
(9.99906 0.00813067 0)
(9.99999 6.64842e-05 1.36536e-21)
(10 3.20214e-06 -1.09225e-21)
(10 4.32634e-08 -1.0922e-21)
(10 2.14704e-09 0)
(10 2.39862e-11 -1.09209e-21)