/*--------------------------------*- C++ -*----------------------------------*\
| =========                 |                                                 |
| \\      /  F ield         | OpenFOAM: The Open Source CFD Toolbox           |
|  \\    /   O peration     | Version:  2112                                  |
|   \\  /    A nd           | Website:  www.openfoam.com                      |
|    \\/     M anipulation  |                                                 |
\*---------------------------------------------------------------------------*/
FoamFile
{
    version     2.0;
    format      ascii;
    arch        "LSB;label=32;scalar=64";
    class       volScalarField;
    location    "0.00341";
    object      p;
}
// * * * * * * * * * * * * * * * * * * * * * * * * * * * * * * * * * * * * * //

dimensions      [1 -1 -2 0 0 0 0];

internalField   nonuniform List<scalar> 
13875
(
951589
984269
973637
975724
973368
974420
974561
974350
974873
975019
975026
975138
974687
974826
974851
974668
974489
974413
973862
973911
973091
975591
972391
982375
944953
733808
659541
672281
677259
670278
668554
668581
670287
677679
678998
679203
678889
670219
669230
670388
677767
678635
677028
670205
668184
669242
676943
672315
657298
730655
736898
635543
664407
653479
648188
645890
645027
645604
647875
647503
647426
646937
645752
645499
645405
648535
645180
647766
646072
646208
647616
651859
661956
632131
733448
743545
636188
665288
653626
648465
646081
645171
645657
645313
644757
645139
644765
645835
645615
645474
645701
643557
645282
646157
646417
647898
651980
662706
632734
739244
757382
639197
667836
654312
649320
646649
645588
645886
645394
644857
645396
644984
646097
645934
645721
645776
643733
645361
646455
646986
648709
652567
664996
635372
750654
759097
647862
673602
656257
651157
647858
646456
646435
645690
645206
646099
645598
646652
646586
646267
646044
644250
645676
647139
648171
650471
654446
670584
643110
751978
765174
668398
685846
661177
654952
650333
648201
647638
646521
646104
647074
646846
647805
647829
647385
646713
645395
646671
648704
650687
654359
660140
682148
665859
756177
791510
718511
711875
674711
663244
655632
651810
650259
648636
648148
649061
649021
650138
650328
649681
648406
647784
649055
651977
655719
662343
673187
707288
715541
782347
909467
828315
767173
705123
680208
666302
659104
655757
653401
652593
653295
653517
654918
655365
654387
652373
652712
654367
658708
665723
678448
701754
760930
823832
910935
1.527e+06
1.03047e+06
835926
743256
702580
681801
671230
665943
663006
661934
662293
662861
664597
665338
664062
661412
662474
664712
670152
680902
700982
740399
831744
1.0272e+06
1.52192e+06
2.91564e+06
1.39651e+06
966397
808296
741023
709440
694115
686469
682715
681181
681041
681896
683946
685037
683880
681147
682278
685250
691929
706520
736578
800080
949047
1.35579e+06
2.87429e+06
5.63462e+06
2.35587e+06
1.32375e+06
973512
828710
770875
744982
732631
726846
724420
723724
724491
726682
728175
727523
725928
727268
731781
742468
766653
822073
958933
1.28617e+06
2.28892e+06
5.60796e+06
5.42643e+06
4.84489e+06
2.45774e+06
1.52121e+06
1.07834e+06
939697
881647
854997
842992
838087
836467
836513
838375
840405
840924
842222
846201
856680
882097
939521
1.07754e+06
1.4882e+06
2.32964e+06
4.89523e+06
5.37984e+06
4.9058e+06
4.71094e+06
4.97517e+06
4.42238e+06
1.87299e+06
1.48332e+06
1.3333e+06
1.26228e+06
1.2344e+06
1.22315e+06
1.21944e+06
1.2186e+06
1.22004e+06
1.22223e+06
1.22593e+06
1.23249e+06
1.24628e+06
1.27779e+06
1.35934e+06
1.539e+06
2.02182e+06
4.47612e+06
4.95417e+06
4.77385e+06
4.81458e+06
4.15904e+06
4.30475e+06
4.84118e+06
4.81265e+06
4.54548e+06
3.41757e+06
3.2062e+06
2.8912e+06
2.75088e+06
2.6927e+06
2.66874e+06
2.65779e+06
2.65592e+06
2.66002e+06
2.6729e+06
2.70107e+06
2.76255e+06
2.90605e+06
3.2635e+06
3.49791e+06
4.5182e+06
4.79644e+06
4.85738e+06
4.46043e+06
4.3991e+06
3.78926e+06
3.84224e+06
4.48582e+06
5.10388e+06
6.42433e+06
7.69233e+06
8.50786e+06
8.42376e+06
8.62154e+06
8.52817e+06
8.58579e+06
8.51235e+06
8.54868e+06
8.52371e+06
8.56642e+06
8.54299e+06
8.61005e+06
8.45632e+06
8.57035e+06
7.82545e+06
6.48992e+06
5.16451e+06
4.61176e+06
4.00227e+06
4.02723e+06
3.00348e+06
3.39998e+06
4.47915e+06
5.33052e+06
6.62818e+06
7.47359e+06
7.74499e+06
7.65767e+06
7.50513e+06
7.3849e+06
7.3183e+06
7.28326e+06
7.26468e+06
7.26976e+06
7.3119e+06
7.37474e+06
7.50333e+06
7.65579e+06
7.75396e+06
7.55106e+06
6.73353e+06
5.39237e+06
4.57949e+06
3.52349e+06
3.18551e+06
2.3369e+06
3.11355e+06
4.48274e+06
5.31399e+06
6.02888e+06
6.21689e+06
6.07358e+06
6.05547e+06
6.04496e+06
6.0485e+06
6.05076e+06
6.04567e+06
6.04454e+06
6.04643e+06
6.05179e+06
6.0462e+06
6.03903e+06
6.03569e+06
6.06514e+06
6.19312e+06
6.07262e+06
5.40097e+06
4.51259e+06
2.90201e+06
2.15164e+06
1.2181e+06
2.03118e+06
3.79516e+06
4.30587e+06
4.56373e+06
4.77516e+06
4.94389e+06
5.13667e+06
5.3065e+06
5.40941e+06
5.46308e+06
5.48946e+06
5.49902e+06
5.48998e+06
5.4646e+06
5.40776e+06
5.31282e+06
5.14884e+06
4.9732e+06
4.83128e+06
4.65792e+06
4.44042e+06
3.88452e+06
2.15229e+06
1.20447e+06
590590
1.30132e+06
2.83148e+06
3.20944e+06
3.40573e+06
3.72723e+06
4.13388e+06
4.47215e+06
4.70298e+06
4.83673e+06
4.91906e+06
4.96709e+06
4.98627e+06
4.97303e+06
4.93055e+06
4.85235e+06
4.7287e+06
4.50383e+06
4.16834e+06
3.76367e+06
3.44532e+06
3.21239e+06
2.70984e+06
1.40471e+06
609318
676091
1.17656e+06
1.80014e+06
2.25235e+06
2.58282e+06
3.02185e+06
3.51623e+06
3.87834e+06
4.12178e+06
4.27423e+06
4.37521e+06
4.43532e+06
4.4577e+06
4.44157e+06
4.38794e+06
4.29177e+06
4.14568e+06
3.90041e+06
3.51848e+06
3.00684e+06
2.56496e+06
2.22404e+06
1.72403e+06
1.09476e+06
670159
1.00408e+06
1.06411e+06
1.23209e+06
1.70366e+06
2.04619e+06
2.55658e+06
3.00593e+06
3.33676e+06
3.57741e+06
3.73881e+06
3.8459e+06
3.9083e+06
3.93119e+06
3.91245e+06
3.85351e+06
3.74883e+06
3.58975e+06
3.34515e+06
2.99941e+06
2.52887e+06
1.99979e+06
1.67018e+06
1.17671e+06
1.00927e+06
961263
1.38349e+06
1.0731e+06
1.07227e+06
1.37874e+06
1.70325e+06
2.21665e+06
2.58678e+06
2.87211e+06
3.10069e+06
3.25916e+06
3.36254e+06
3.42319e+06
3.44412e+06
3.42288e+06
3.36234e+06
3.25736e+06
3.09732e+06
2.86392e+06
2.5673e+06
2.20001e+06
1.64382e+06
1.34393e+06
1.04692e+06
1.03214e+06
1.38952e+06
1.4271e+06
1.09394e+06
1.07857e+06
1.23165e+06
1.49628e+06
1.91441e+06
2.22024e+06
2.48055e+06
2.68494e+06
2.82701e+06
2.92851e+06
2.9858e+06
3.00665e+06
2.98389e+06
2.92482e+06
2.81839e+06
2.67148e+06
2.46301e+06
2.18275e+06
1.88147e+06
1.46079e+06
1.19558e+06
1.05216e+06
1.06101e+06
1.40809e+06
1.42625e+06
1.13143e+06
1.09529e+06
1.16225e+06
1.35773e+06
1.66374e+06
1.91615e+06
2.15142e+06
2.33176e+06
2.45996e+06
2.55212e+06
2.60679e+06
2.62322e+06
2.60401e+06
2.54835e+06
2.4487e+06
2.31503e+06
2.12948e+06
1.87744e+06
1.62304e+06
1.32594e+06
1.13129e+06
1.06949e+06
1.10888e+06
1.40783e+06
1.43094e+06
1.1894e+06
1.13069e+06
1.12992e+06
1.25272e+06
1.46205e+06
1.67148e+06
1.87508e+06
2.02972e+06
2.1443e+06
2.22795e+06
2.27154e+06
2.28997e+06
2.26885e+06
2.22016e+06
2.13053e+06
2.00805e+06
1.84822e+06
1.63511e+06
1.42338e+06
1.23068e+06
1.10618e+06
1.10657e+06
1.17611e+06
1.4088e+06
1.44409e+06
1.28512e+06
1.17189e+06
1.13051e+06
1.18e+06
1.31285e+06
1.47983e+06
1.64712e+06
1.7792e+06
1.87947e+06
1.95071e+06
1.98971e+06
2.00172e+06
1.98583e+06
1.93902e+06
1.86335e+06
1.75522e+06
1.61813e+06
1.44533e+06
1.27293e+06
1.15009e+06
1.10662e+06
1.15372e+06
1.30872e+06
1.42475e+06
1.4871e+06
1.46997e+06
1.20825e+06
1.12815e+06
1.12487e+06
1.19392e+06
1.31837e+06
1.45177e+06
1.56096e+06
1.64874e+06
1.71219e+06
1.7436e+06
1.75669e+06
1.73934e+06
1.70203e+06
1.63537e+06
1.54152e+06
1.42869e+06
1.29253e+06
1.1647e+06
1.10288e+06
1.10672e+06
1.18826e+06
1.47076e+06
1.46946e+06
1.58314e+06
1.55188e+06
1.23346e+06
1.11882e+06
1.08983e+06
1.11197e+06
1.19693e+06
1.2965e+06
1.38535e+06
1.4579e+06
1.50891e+06
1.53901e+06
1.54721e+06
1.53392e+06
1.4994e+06
1.44409e+06
1.3651e+06
1.27221e+06
1.17141e+06
1.08617e+06
1.06829e+06
1.10018e+06
1.21492e+06
1.52588e+06
1.56966e+06
1.78508e+06
1.60139e+06
1.24797e+06
1.10313e+06
1.05317e+06
1.04996e+06
1.09565e+06
1.16456e+06
1.2325e+06
1.29233e+06
1.33753e+06
1.35977e+06
1.36867e+06
1.35389e+06
1.32713e+06
1.27919e+06
1.21411e+06
1.14281e+06
1.07261e+06
1.02829e+06
1.03319e+06
1.08557e+06
1.24083e+06
1.59213e+06
1.72795e+06
1.84304e+06
1.64405e+06
1.27334e+06
1.08809e+06
1.01362e+06
995244
1.01504e+06
1.05993e+06
1.1093e+06
1.1555e+06
1.18959e+06
1.21089e+06
1.21623e+06
1.20656e+06
1.18101e+06
1.14386e+06
1.09416e+06
1.0432e+06
998247
979197
998431
1.07333e+06
1.26045e+06
1.62637e+06
1.86449e+06
1.84236e+06
1.66648e+06
1.3179e+06
1.08571e+06
980252
948003
945931
971845
1.00408e+06
1.03646e+06
1.06543e+06
1.07972e+06
1.08643e+06
1.07692e+06
1.05771e+06
1.02648e+06
989809
956741
929783
931881
963530
1.06945e+06
1.29174e+06
1.65159e+06
1.86295e+06
1.83426e+06
1.66649e+06
1.37461e+06
1.08765e+06
950334
901192
890546
898685
919598
940792
959391
972235
975705
969509
951592
930908
906684
885454
875307
886137
935552
1.07276e+06
1.34972e+06
1.65924e+06
1.85744e+06
1.81811e+06
1.66591e+06
1.49226e+06
1.09956e+06
928968
859018
837275
833942
843494
854682
869465
876759
880648
874575
863401
847087
833420
822801
825729
846680
915180
1.08081e+06
1.44238e+06
1.65655e+06
1.83816e+06
1.78652e+06
1.66265e+06
1.56433e+06
1.12735e+06
921870
824941
790109
780753
781620
786419
793068
799077
800310
796901
787474
779474
773394
770601
779193
814159
912461
1.10551e+06
1.59435e+06
1.65122e+06
1.79919e+06
1.75667e+06
1.64384e+06
1.56215e+06
1.1567e+06
923853
797794
748052
729990
725429
725050
727829
730083
731149
727151
723231
718861
717893
721354
738292
788072
917047
1.15304e+06
1.59692e+06
1.63696e+06
1.7283e+06
1.7148e+06
1.60476e+06
1.5574e+06
1.2179e+06
934383
781962
713435
686533
677352
674407
673064
673693
672805
670992
669167
669777
671988
679646
705696
774536
924919
1.2209e+06
1.58563e+06
1.60124e+06
1.68868e+06
1.66852e+06
1.55572e+06
1.54427e+06
1.34024e+06
959777
782267
688229
649133
633692
626955
624160
621988
621653
620425
621304
623355
628470
642302
679882
775390
947166
1.35801e+06
1.56236e+06
1.54651e+06
1.64919e+06
1.63616e+06
1.51319e+06
1.50822e+06
1.34267e+06
990410
785662
672786
619461
598271
589298
582863
580012
578659
579208
580283
585233
594042
613969
667703
784073
993807
1.36382e+06
1.51475e+06
1.4998e+06
1.61354e+06
1.60002e+06
1.47446e+06
1.43642e+06
1.33935e+06
1.05531e+06
798770
673279
597773
566732
552211
545724
541015
540310
540683
543948
549594
562640
593026
668036
796991
1.0677e+06
1.35545e+06
1.41655e+06
1.46074e+06
1.58805e+06
1.55622e+06
1.43471e+06
1.35946e+06
1.32764e+06
1.18529e+06
826747
677464
586370
543343
525665
514458
510118
507903
509316
512757
522392
540869
583990
672256
826101
1.21762e+06
1.33502e+06
1.33663e+06
1.42912e+06
1.55228e+06
1.52376e+06
1.40234e+06
1.29854e+06
1.2952e+06
1.18458e+06
867061
683737
586591
527593
499001
486577
480358
479079
479453
485644
496746
524561
584732
687729
888847
1.21672e+06
1.29196e+06
1.28176e+06
1.39856e+06
1.50714e+06
1.47542e+06
1.37355e+06
1.25067e+06
1.23048e+06
1.17714e+06
951966
702413
590235
522677
485074
464172
457304
454340
456620
462765
482204
519639
587956
713599
1.00107e+06
1.1996e+06
1.22289e+06
1.23657e+06
1.36806e+06
1.472e+06
1.42378e+06
1.34296e+06
1.21586e+06
1.16858e+06
1.15646e+06
1.04394e+06
739531
600574
523358
470074
445899
434941
432508
434403
444979
468976
520448
598069
765662
1.04891e+06
1.16209e+06
1.16132e+06
1.20731e+06
1.34031e+06
1.42851e+06
1.3849e+06
1.30827e+06
1.18781e+06
1.11705e+06
1.10959e+06
1.03988e+06
803928
619027
525452
469869
436120
420695
414969
419928
434850
469066
525850
623704
875738
1.04328e+06
1.09066e+06
1.10941e+06
1.18507e+06
1.30377e+06
1.37638e+06
1.34395e+06
1.27515e+06
1.16893e+06
1.07407e+06
1.04448e+06
1.02711e+06
937408
659319
534560
471345
435624
410658
403326
410002
433039
470185
537426
669597
929188
1.02149e+06
1.02683e+06
1.06855e+06
1.16789e+06
1.26956e+06
1.34202e+06
1.29732e+06
1.2331e+06
1.14833e+06
1.04662e+06
996763
997174
936678
741761
556370
476169
436253
410312
398377
409879
433575
474212
562739
762752
925761
975565
979289
1.04159e+06
1.14852e+06
1.23312e+06
1.29777e+06
1.25623e+06
1.19835e+06
1.12895e+06
1.02741e+06
957077
941249
925299
845095
598201
486382
437984
410726
398855
410517
436764
486346
618952
841697
913817
922783
944091
1.0242e+06
1.12766e+06
1.19527e+06
1.24855e+06
1.17379e+06
1.14631e+06
1.09962e+06
1.013e+06
933532
897224
899366
843223
686680
509725
444748
412898
400943
412621
444705
510384
730510
839942
885841
883044
923550
1.00892e+06
1.09738e+06
1.1413e+06
1.16153e+06
1.04506e+06
1.07613e+06
1.05928e+06
992351
914552
858793
851160
832559
766574
559962
462748
419161
406535
418814
463722
560486
763568
827965
842574
849511
907701
988088
1.05351e+06
1.07117e+06
1.03623e+06
76150.2
75336
75215.3
75593.1
75435.4
76008.6
76002.3
76136
76287.8
76572.3
77056.3
77727
78226.1
78703
79563.2
81095.5
83346.3
85885.8
88649.5
91674.6
95041.2
99377.1
103668
108035
112046
114582
109858
84647.5
74242
71791.2
76179
75442.6
75504.5
75819.9
75832.1
76482.6
76498.1
76631.2
76745.1
77010.1
77484
77864.6
78327.1
78681.1
79070.7
79972.9
82232.2
84694.2
87502.5
90705.3
94595.6
98724.1
103547
108570
113517
117322
118518
114022
85705.3
76521.4
76495.9
75494.5
75758.4
76159.9
76400.4
77182.7
77244.3
77305.2
77325.2
77465
77720.5
77967.6
78162.5
78244.7
78394.4
79100.7
80930.7
83568.1
86587.2
90128.8
94129.7
98436.8
103534
108919
114256
118473
122605
125236
111572
98455.7
76775.2
75499.6
75886.4
76512.4
77180.2
78015
78195.5
78201.3
77941
77810.8
77854.7
77975
78021.8
78007.4
78026.2
78563.6
79897
82714.5
85978.7
89700.3
93789.8
98295.7
103475
108976
114438
118729
124836
133626
146735
213200
76460.3
75661.2
76092.7
76948
77516.2
78200.3
78456.5
78620.2
78621.2
78370.6
78154.5
78019.7
77990
77940.5
77903.2
78322.9
79461.2
82102.2
85593.2
89406.3
93558.1
98097.2
102946
108697
114167
118850
126547
144403
203626
258733
76306.1
75949.7
76402.6
77273.4
77588.5
78169.5
78450.1
78702.5
78791.2
78814.1
78537.7
78311.3
78147.2
78034.1
77972.5
78277.7
79348.2
81515.6
85182.1
89068.2
93320.9
97832.5
102687
107745
111894
119159
131872
164955
251212
263719
76277.4
76355.1
76748.2
77430.1
77569.7
78037.6
78333.4
78677.5
78922.1
79033.5
78965.4
78743.4
78561.8
78494.2
78522.7
78468.2
79337.2
81270.1
84709.4
88653.9
92902.7
97419.2
102040
106281
111333
120197
142368
225312
261686
263869
76299.1
76842.2
77108.1
77556.8
77600.9
78000.3
78302.9
78710.3
79140.9
79390.6
79477.4
79398.8
79349.2
79260.4
79135.2
79147.4
79595.5
81253.4
84243.3
88231.9
92342
96668
101028
104483
111300
124878
165451
253151
261746
258843
76545.9
77422.1
77527.5
77835.7
77895.4
78207.9
78559.4
79047.6
79582.8
80011
80292.2
80429.3
80388.9
80069.2
79969.5
80060.4
80159.4
81325.6
83846.3
87652.2
91559.5
95629.3
99324.3
104058
112572
135779
225811
256998
258643
247026
77111.4
78104.5
78122.4
78382.9
78491.5
78770.4
79170.9
79707.3
80278.8
80890.1
81395.6
81604.3
81541.4
81118.7
80774.6
80627.5
80610.7
81409.3
83421.3
86814.3
90608
94487.7
97786.3
104086
117400
167573
245284
256611
251499
236028
77952.7
78908.9
78957.6
79213
79371.5
79655
80084
80575.8
81160.3
81999.3
82522.1
82740.6
82453.1
81839.6
81194.5
80892.5
80828.1
81295.6
82877.5
85844.6
89647.3
93401.2
97509.4
105495
129506
222104
247748
252041
242645
229310
78940.9
79814.8
79958.6
80199
80393.1
80749.3
81020.4
81394.1
82067
82772.4
83175.8
83344.3
82928.9
82195.1
81374.2
80980
80878.9
81062.4
82324.4
84919
88643.8
92049.3
97659.9
110621
166031
236726
246265
245140
233758
225036
79970.1
80743.6
80973.8
81187.6
81439.2
81584.6
81716.5
82007.8
82626.1
83178.3
83485.4
83624.5
83135.7
82323.1
81424.2
80994.6
80813.7
80703.6
81685.3
83947.2
87561.2
91239.9
99200.6
122996
214753
238594
241278
237662
226703
222132
80960.8
81618.4
81854.7
82044.1
82099
82118.5
82204.5
82308.7
82877
83339
83590.4
83708.3
83187.1
82344.2
81407.7
80745.1
80327.1
80155.5
80819
82805.1
86393.7
91314.3
103708
159418
227706
237276
235143
230000
222557
220108
81873.8
82339.4
82551.3
82630.5
82512.2
82470.6
82427.1
82411.7
82935.8
83364.5
83597.7
83699.5
83065.6
82086.3
81013.2
80139.7
79574.6
79375.5
79676.5
81448.1
84765.6
92319.7
114984
204393
229796
233560
228364
223583
219666
218713
82701.8
82899.6
83086.4
83169.6
82898.4
82644.3
82482.9
82420.2
82782
83106.9
83239.8
83223.1
82524.9
81518.9
80460.5
79186
78701.3
78458.3
78415.1
79997.6
83941.2
95460.8
146198
217549
228852
228821
222075
218739
217061
216914
83356.9
83337
83497.6
83601
83432.2
82821.9
82369
82195.7
82190.9
82395.1
82508.2
82506.7
81788.3
80708.3
79506.4
78506.2
77704.9
77416.4
77189.9
78605.6
84213.3
103667
189738
220323
225428
223440
217295
215122
214594
214608
84155
83987.6
84023.7
84008.3
83875.5
82998.1
82140.9
81781.6
81719.8
81693.3
81774.9
81714.4
80959.6
79725.1
78711
78147.5
77158.5
76357.8
75987
77309.8
86130.8
129299
205261
220037
221566
217682
213566
212396
211972
211769
84462.4
84196.4
84027.4
84103.7
83902.6
82916.7
82081.1
81615.2
81427
81334.5
81172.6
80999.8
80070.7
78930.6
78353.8
78041.1
76909.2
75394.6
74656.8
77193.5
91560.3
167754
210305
217691
217918
212635
210245
209549
209088
208890
85476.3
85051.7
85193.4
84896.1
84371
82882
82080.1
81619.6
81359.9
81209.7
80754.6
80224.1
79195.8
78523.7
78232.5
78045.8
76779.3
74846
74340
78297
109663
190376
210888
214210
213419
208908
206974
206470
206199
206070
85204.9
84968.1
84089.8
84011.6
83364.2
83041.8
82262.3
81570.3
80770.9
80016
79408.2
78754.3
78433
78310
78192.6
76960.5
75020.3
74023.6
74628.1
81953.8
142035
199048
209620
210759
208673
205539
204079
203725
203711
203470
86906.1
85539
85541.8
84856.7
84154.1
83119.7
82157.4
80413.6
79247
78626.6
78195
77990.1
77991.5
77867.1
76337
74303.8
73244.7
73570.6
75703.8
92725.4
174991
201489
206950
207369
204148
202093
201315
201297
201312
201095
83984.9
84526.9
83419.7
83429.4
82397.6
81893.8
81177.5
79706.8
78559.5
77951.4
77704.3
77626
77834
76197.1
73996.5
72492.5
72383.2
73546.1
78831.1
123794
188615
201392
203566
203353
200130
198973
198666
198929
199053
198922
89921.8
84082.8
84634.2
83288.9
82541.4
81408.8
80828
79321
78011.3
77293.6
77028.3
76981.6
76162.5
73903.2
72160.7
72018.1
72270.2
74769.4
89227.2
166506
195015
199798
200132
198551
197007
196186
195919
196635
196888
196992
67777.4
80082.3
81495
81981.7
81403.8
80974.4
80528.4
78610.2
77696.9
76713.2
76318.3
75344
73140.8
71748.2
71764.8
72129.4
73365.9
80762.2
127322
186965
196237
197367
196935
194626
193627
193188
193065
194293
194769
195134
71754.9
74127.4
84157.9
109492
114475
111967
107975
103651
99286.7
94970
91627.4
88572.9
85856.9
83319.6
81073.4
79532.9
78687.1
78220.5
77725.4
77067.1
76576.2
76284.3
76127.7
75991.1
75994.5
75422.6
75581.9
75211.3
75296.5
76114.1
76335.8
85187.9
113589
118421
117290
113498
108564
103514
98725.4
94598.3
90681.3
87491.1
84712
82246.8
79983
79017
78653.7
78319
77867.1
77497.8
77025.6
76757.8
76642.3
76509.3
76493.8
75849.6
75831.3
75513.8
75453.5
76158.1
97572.3
110741
125049
122584
118474
114281
108946
103558
98492.4
94169
90152.2
86621
83569.2
80924.6
79075.9
78388.6
78238.5
78158
77983.4
77747.1
77500.3
77367.7
77350.4
77276.3
77215.6
76459.1
76212
75813.5
75537.7
76507.6
211219
145892
133494
124833
118759
114480
109016
103526
98362.2
93858.1
89765.3
86045.9
82756.8
79919.3
78557.3
78051.3
78022.7
78041.9
77997.9
77894.3
77877.5
78020.2
78312.7
78362.3
78190.6
77311.7
76639.4
75992.8
75578.3
76804.5
258506
203083
144242
126545
118903
114247
108802
103038
98178.6
93635.4
89494.6
85676.6
82166.2
79508.7
78336.8
77946.1
77970.6
78024.3
78079.3
78246
78501.7
78903.2
78921.3
78752.7
78483
77762.4
77171.4
76285.6
75828.3
76595.4
263812
251297
164806
131881
119238
111997
107848
102783
97924.8
93413
89164.5
85270.4
81563.5
79409.4
78306.4
78092.7
78188.9
78317.6
78492.8
78783.2
79107
79146
79060.2
78779.2
78484.7
77887.5
77579.2
76680.5
76196.4
76512.7
264013
261973
225215
142405
120280
111436
106393
102132
97507.8
92989.3
88736.1
84786.3
81347.2
79408.5
78627.5
78707.4
78755.3
78857.6
79073.3
79372.9
79487.2
79319.2
79054.2
78683.1
78375.7
77897.3
77774.2
77096.3
76683.1
76514.2
259262
262070
253394
165536
124972
111398
104568
101114
96749.9
92422.9
88306.1
84316.3
81344.8
79721.3
79396.3
79380.7
79533.3
79723
79858.9
80017.5
79876.3
79572.6
79078.4
78658.8
78350.7
77962
77926.7
77492
77245.6
76629.5
247599
259057
257334
226080
135906
112662
104136
99410.9
95699.1
91628.4
87726.1
83927.2
81459.4
80334.7
80297.1
80257.9
80400.9
80831.3
81040.3
80881.6
80590.5
80030.9
79420.4
78934.9
78596.1
78287
78230.2
77929.2
77869.5
76943.9
236524
251976
256966
245613
167920
117497
104161
97847.8
94554.7
90674.3
86893.6
83520.7
81563.7
80925.9
80951.2
81104.8
81538.2
82119.4
82419.9
82107.7
81479.5
80711.1
80064.7
79539.7
79175.3
78912.1
78802.3
78537.3
78557.4
77528.8
229772
243127
252409
248081
222421
129651
105571
97566.2
93466.3
89720.8
85948
83009.8
81516.3
81170.3
81281.7
81690.1
82466.6
83141.3
83421
83140.7
82494.9
81609.1
80971.1
80449.6
80070.6
79819.3
79661.7
79390.3
79343
78340.9
225453
234210
245457
246564
236967
166482
110715
97714
92056.7
88717.7
85042.9
82497
81342.1
81239.3
81427
81980.7
82908.3
83655
83991.8
83781.2
83247.9
82466.5
81877.7
81509.8
81214.9
80883.4
80685.2
80404.4
80213.8
79288.3
222350
226997
237928
241491
238787
214994
123154
99254.5
91296.2
87633.9
84097.8
81909.1
81062.2
81214.8
81469.5
82104.8
83077.8
83877.1
84240.9
84071.2
83635.3
83012.3
82484.7
82331.5
82207.5
82007.7
81725.7
81435.9
81121.5
80307.5
220116
222649
230169
235257
237395
227794
159786
103780
91376.9
86469.6
83000.7
81119.1
80612.3
80822.7
81378
82132.3
83115.7
83933.6
84307.7
84155.1
83781.2
83261.9
82773.3
82741.3
82724.1
82662.1
82600.6
82350.4
82010.4
81298.9
218625
219631
223584
228362
233551
229815
204591
115170
92417
84830
81718.2
80091
79950.8
80221.9
80970.9
81978.7
83009.5
83872.6
84277.3
84150.9
83798.8
83325.2
82871
82907.7
82971.2
83051
83143.9
83030.8
82763.4
82257.5
216749
216919
218594
221932
228726
228812
217670
146639
95646.9
84230.5
80381.2
78983.5
79174.2
79565
80473.4
81541.1
82425.2
83292.4
83768.6
83699.6
83501
83201
82878.9
82932.1
83059.6
83324.2
83584
83503.9
83322.1
83176.6
214449
214401
214887
217043
223253
225388
220422
190233
104056
84594.7
79067
77953.4
78272.6
78749
79582.4
80574.6
81521.6
82436
82984.2
82922
82830.2
82701.9
82626.9
82733.1
83056.7
83762.7
83941.4
83861.7
83751.5
83861.6
211558
211747
212143
213280
217441
221578
220146
205772
130137
86681.1
77998.2
76870.3
77326.1
78315.8
79111.9
79560.4
80458.6
81478
82128.8
82186
82141.3
82213.2
82276.6
82477.8
83108.3
83993.3
84261.4
84360.4
84380.9
84583.2
208532
208744
209240
209999
212509
218024
217889
210893
169049
92355.9
78047.7
75590.4
76451.3
78007
78832.2
78953.9
79437.1
80440.7
81129.3
81328.7
81350
81460.3
81694.2
82216.6
82973
83890.3
84235.2
84299.2
84498.1
84847.1
205665
205807
206131
206710
208803
213651
214625
211509
191624
111058
79318.6
75346.9
75956.5
77844.6
78710.1
78658.1
78879.8
79572.4
80407.1
80720.1
80979.6
81060.9
81438.3
82186.7
82925.2
84378.1
84884
85347.7
85317.6
85861.5
203019
203287
203368
203836
205476
208946
211424
210422
200451
144139
83194.2
75655.7
74841.1
75868.1
77384.8
78055.8
78461.5
78724
79244.1
80058.5
80454.9
80895.3
81359.4
82150.4
82925.2
83398.7
84371.7
84470.2
85160.6
85492.4
200623
200872
200941
201099
202116
204591
208308
208001
202982
177177
94464.2
76728
74186.8
73649.1
74612.3
76341.5
77899.1
78106.6
78182.5
78514.1
79238.1
80353.6
80973.9
82099.6
82856.5
84001.1
84962.4
85767.4
85721.4
87157.3
198435
198601
198582
198547
199032
200595
204576
204861
202914
190699
126033
79879
74095.8
72691
72799.7
74183.8
76496.2
77815.2
77518
77626.9
78016.3
78897.8
80392.9
81937.8
82647.1
83024.4
83666.2
83474.2
84560
84197.2
196488
196445
196313
195938
196259
197340
199577
201669
201421
196911
168946
90413.3
75342.6
72569.6
72425.7
72520.7
74207.3
76241.9
77098
77152.7
77422.4
78043.6
79285
81011.2
81926.7
83332.7
83943.9
84873.5
84348.7
90283.6
194781
194465
194116
193215
193387
193956
195252
198463
199106
198048
188997
129489
81192.6
73654.6
72581.5
72273.7
72281.7
73386.3
75870.6
77000
77228.3
77870.3
78565.5
79994.4
81197.4
82337.7
82486.8
81931.6
80446.7
67880.3
70637
70637
70637
70637
70637
70637
70637
70637
70637
70637
70637
70637
70637
70637
70637
70637
70637
70637
70637
70637
70637
70637
70637
70637
70637
70637
70637
70637
70637
70638.9
70813.3
76406.7
211880
733969
1.32117e+06
1.58872e+06
1.72535e+06
1.79065e+06
1.84937e+06
2.04892e+06
2.14809e+06
2.18718e+06
2.19634e+06
2.19705e+06
2.1839e+06
2.14224e+06
2.08276e+06
2.02627e+06
1.95468e+06
1.87263e+06
1.79319e+06
1.72202e+06
1.65832e+06
1.59472e+06
1.53049e+06
1.46907e+06
1.40935e+06
1.3457e+06
1.27514e+06
1.19691e+06
1.11573e+06
1.03221e+06
949283
870830
801198
740549
686859
639043
596806
559153
525519
495463
468368
443782
421508
401550
383614
367351
352848
339817
327976
317085
306749
297243
288307
279838
271784
264118
256833
249954
243515
237536
232021
226924
222182
217731
213530
209573
205879
202472
199350
196459
193744
191176
188797
186656
184780
183163
181785
180606
179564
178797
178487
178496
178569
178816
179417
180705
182236
183869
185516
187181
189037
190962
192940
70637
70637
70637
70636.9
70636.9
70636.9
70636.9
70636.9
70636.9
70636.9
70636.9
70636.9
70636.9
70636.9
70636.9
70636.9
70636.9
70636.9
70636.9
70636.9
70636.9
70636.9
70636.9
70636.9
70636.9
70636.9
70636.9
70636.9
70637.1
70641.9
70972.1
80805.8
271127
733529
1.26749e+06
1.60103e+06
1.76625e+06
1.87877e+06
1.94134e+06
1.96755e+06
1.97787e+06
1.98694e+06
1.99166e+06
1.99869e+06
2.00575e+06
2.00784e+06
2.00378e+06
2.00137e+06
1.98748e+06
1.95867e+06
1.92097e+06
1.87298e+06
1.81808e+06
1.75863e+06
1.69642e+06
1.62639e+06
1.54194e+06
1.44457e+06
1.34139e+06
1.24008e+06
1.13682e+06
1.03621e+06
940916
856912
784976
722278
667376
619949
578474
542006
509950
481548
455990
432797
411750
392828
375662
359787
345461
332622
321143
310750
301025
291673
282915
274704
266955
259608
252618
246020
239857
234147
228884
224006
219440
215132
211055
207210
203613
200285
197226
194387
191718
189191
186849
184743
182904
181333
179982
178800
177780
177134
176952
176972
177065
177333
177938
179218
180832
182367
183839
185458
187492
189780
192247
70637
70637
70637
70637
70637
70636.9
70636.9
70636.9
70636.9
70636.9
70636.9
70636.9
70636.9
70636.9
70636.9
70636.9
70636.9
70636.9
70636.9
70636.9
70636.9
70636.9
70636.9
70636.9
70636.9
70636.9
70636.9
70636.9
70637
70637.6
70660.2
71618.6
101219
418433
1.07465e+06
1.85561e+06
2.1148e+06
2.18086e+06
2.19254e+06
2.1873e+06
2.15788e+06
2.09128e+06
1.98985e+06
1.91392e+06
1.86126e+06
1.78544e+06
1.74318e+06
1.72955e+06
1.72898e+06
1.74738e+06
1.75355e+06
1.75503e+06
1.75474e+06
1.75372e+06
1.73874e+06
1.69003e+06
1.59686e+06
1.48361e+06
1.36181e+06
1.23848e+06
1.12487e+06
1.02318e+06
930615
846579
774749
713225
660573
614951
574712
538894
507295
479069
453676
430629
409657
390685
373333
357222
342580
329491
317849
307360
297700
288573
279874
271668
264019
256777
249963
243577
237643
232121
226977
222162
217654
213424
209440
205685
202140
198810
195707
192808
190086
187528
185173
183070
181234
179653
178300
177111
176182
175605
175422
175432
175515
175827
176571
178066
179590
181192
182926
184847
186967
189242
191753
70637
70637
70637
70637
70637
70636.9
70636.9
70636.9
70636.9
70636.9
70636.9
70636.9
70636.9
70636.9
70636.9
70636.9
70636.9
70636.9
70636.9
70636.9
70636.9
70636.9
70636.9
70636.9
70636.9
70636.9
70636.9
70636.9
70637.1
70641
70751.2
73179
113486
461941
933075
1.12576e+06
1.2585e+06
1.52131e+06
2.03556e+06
2.2312e+06
2.27361e+06
2.27442e+06
2.22614e+06
2.11956e+06
1.97419e+06
1.78529e+06
1.70012e+06
1.66852e+06
1.66369e+06
1.67711e+06
1.72143e+06
1.73441e+06
1.73875e+06
1.73972e+06
1.72159e+06
1.65381e+06
1.565e+06
1.45097e+06
1.32412e+06
1.19359e+06
1.06389e+06
958131
876576
806407
739457
680230
632631
592201
556114
522911
493621
466893
442612
420821
400898
382645
365616
349499
334468
320871
308929
298394
288901
280194
271890
263902
256371
249459
243177
237433
232156
227176
222373
217730
213342
209250
205423
201806
198339
195000
191811
188784
185943
183315
180934
178832
177013
175450
174110
173011
172274
171822
171556
171577
171750
172264
173351
174797
176238
177988
180141
182518
184913
187365
190256
70637
70637
70637
70637
70637
70637
70636.9
70636.9
70636.9
70636.9
70636.9
70636.9
70636.9
70636.9
70636.9
70636.9
70636.9
70636.9
70636.9
70636.9
70636.9
70636.9
70636.9
70636.9
70636.9
70636.9
70636.9
70637
70639
70702.6
72209.6
97226.4
330896
654444
795592
864718
927635
1.02128e+06
1.16834e+06
1.39934e+06
1.92239e+06
2.23526e+06
2.31956e+06
2.32657e+06
2.28538e+06
2.10906e+06
1.82926e+06
1.72348e+06
1.69117e+06
1.68841e+06
1.69349e+06
1.69308e+06
1.67677e+06
1.60802e+06
1.49225e+06
1.36851e+06
1.26472e+06
1.22026e+06
1.18513e+06
1.13126e+06
1.03066e+06
911215
814773
740068
686973
641624
601819
567046
533032
500471
471187
446540
423850
403787
386728
371716
357270
343307
329630
316416
304276
293418
283589
274450
265927
258004
250600
243610
236976
231008
225673
220800
216188
211763
207584
203732
200214
196910
193701
190528
187397
184356
181462
178753
176272
174022
172006
170268
168769
167538
166680
165969
165892
166014
166425
167317
168685
170237
172014
174093
176539
179431
182916
186563
190245
70637
70637
70637
70637
70637
70637
70636.9
70636.9
70636.9
70636.9
70636.9
70636.9
70636.9
70636.9
70636.9
70636.9
70636.9
70636.9
70636.9
70636.9
70636.9
70636.9
70636.9
70636.9
70636.9
70636.9
70637
70638
70672.5
71640.3
89369.2
302265
589687
698045
749469
782204
811466
847722
898386
979152
1.11514e+06
1.33528e+06
1.78651e+06
2.00331e+06
2.04485e+06
2.03724e+06
1.90051e+06
1.74843e+06
1.68076e+06
1.65345e+06
1.63207e+06
1.59207e+06
1.53323e+06
1.47095e+06
1.37618e+06
1.26801e+06
1.13393e+06
1.02e+06
913961
860427
857034
833600
769205
703955
647554
602560
567370
534415
507032
479263
455673
433741
415941
398955
383010
368006
353908
340817
327725
314911
302883
291834
281746
272444
263766
255646
248067
241005
234428
228352
222752