/*--------------------------------*- C++ -*----------------------------------*\
| =========                 |                                                 |
| \\      /  F ield         | OpenFOAM: The Open Source CFD Toolbox           |
|  \\    /   O peration     | Version:  2112                                  |
|   \\  /    A nd           | Website:  www.openfoam.com                      |
|    \\/     M anipulation  |                                                 |
\*---------------------------------------------------------------------------*/
FoamFile
{
    version     2.0;
    format      ascii;
    arch        "LSB;label=32;scalar=64";
    class       volScalarField;
    location    "0.01007";
    object      k;
}
// * * * * * * * * * * * * * * * * * * * * * * * * * * * * * * * * * * * * * //

dimensions      [0 2 -2 0 0 0 0];

internalField   nonuniform List<scalar> 
13875
(
812.109
3462.67
3540.42
3539.9
3541.23
3540.13
3540.88
3542.65
3540.26
3539.53
3541.25
3541.44
3541.08
3540.15
3540.43
3541.18
3541.9
3541.17
3540.76
3540.23
3541.17
3539.01
3540.17
3462.03
820.297
881.792
2936.65
3013.08
3001.03
3001.11
2998.84
2997.58
2999.79
2998.15
2997.01
2997.31
2998.39
2996.81
2996.39
2996.17
2998.49
2996.23
2997.1
2996.98
2998.59
3000.45
2999.28
3011.69
2934.5
894.273
993.358
2710.86
2777.49
2755.51
2758.94
2755.76
2747.11
2746.74
2744.66
2743.29
2743.14
2744.24
2751.58
2752.18
2750.86
2744.64
2741.19
2742.69
2745.32
2755.08
2757.66
2753.16
2774.54
2706.7
998.24
1091.07
2533.67
2580.96
2561.43
2566.75
2563.31
2553.48
2551.33
2549.07
2548.03
2547.93
2548.31
2559.32
2560.03
2558.83
2548.65
2547.3
2547.54
2551.17
2562.9
2565.48
2559.4
2579.15
2529.34
1093.89
1172.12
2380.44
2413.12
2392.62
2397.99
2394.23
2384.45
2381.9
2380.41
2379.87
2379.57
2379.41
2390.24
2391.4
2389.87
2379.73
2379.16
2379.03
2382.35
2393.9
2396.77
2391.17
2410.45
2375.34
1177.52
1241.03
2237.13
2270.88
2244.6
2251.2
2245.81
2234.95
2232.03
2231.16
2231
2230.53
2229.94
2240.73
2242.29
2240.5
2230.19
2230.45
2229.91
2233.09
2245.68
2249.94
2243.74
2267.84
2247.25
1247.4
1321
2121.85
2158.3
2120.04
2123
2115.57
2102.93
2099.08
2098.69
2098.82
2098.14
2097.1
2107.96
2109.69
2107.54
2097.22
2098.52
2097.67
2101.55
2115.49
2121.66
2119.76
2154
2095.71
1323.48
1409.8
2000.79
2073.56
2019.45
2016.27
2002.49
1986.73
1981.33
1981.04
1981.35
1980.49
1978.77
1989.81
1991.89
1989.43
1978.78
1981.38
1980.52
1985.43
2002.16
2013.94
2017.98
2068.27
1992.87
1420.27
1691.48
2029.54
2022.07
1944.25
1924.91
1904.62
1884.87
1877.6
1876.86
1877.57
1876.79
1874.31
1885.49
1887.98
1885.36
1874.56
1878.03
1877.16
1883.34
1903.84
1922.37
1942.17
2017.79
2033.54
1716.47
2509.3
2285.58
2018.22
1901.11
1858.79
1826.22
1803.01
1795.13
1793.52
1793.98
1793.18
1790.28
1801.08
1803.96
1801.43
1791.82
1794.85
1795.04
1801.33
1824.7
1855.6
1891.51
2011.4
2266.21
2529.55
3877.44
3026.92
2153.73
1915.82
1814.74
1772.01
1745
1733.85
1731.2
1730.73
1729.64
1726.54
1736.4
1739.59
1737.99
1730.92
1733.1
1735.03
1744.96
1768.22
1813.27
1907.17
2129.55
2936.48
3858.77
5187.51
6456.82
2852.5
1994.34
1853.65
1755.97
1711.75
1695.54
1689.92
1687.95
1686.3
1683.42
1691.38
1694.79
1694.7
1690.7
1692.79
1697.81
1712.24
1757.77
1847.05
1974.02
2789.57
6314.44
5120.39
5058.91
7637.06
7044.36
3331.25
2041.37
1795.43
1740.36
1700.3
1685.07
1678.4
1674.65
1671.32
1676.84
1680.31
1682.33
1682.85
1689.86
1706.47
1746.43
1804.1
2089.03
3232.15
6762.6
7645.18
5009.94
4828.74
6367.93
7175.59
8727.02
5157.99
2328.04
1898.51
1782.43
1748.1
1743.93
1740.85
1737.74
1742.23
1745.49
1748.67
1751.98
1757.77
1792.21
1940.98
2482.93
5618.16
8151.56
6954.18
6329.38
4833.06
4605.29
5518.66
6042.5
6985.99
6820.8
6718.48
3434.49
2378
2131.29
2036.88
1996.5
1981.41
1981.73
1986.38
1998
2029.9
2119.88
2387.12
3629.52
6896.06
6817.45
6703.55
5964.22
5486.29
4681.73
4294.74
4802.81
5114.81
5876.34
6057.51
6567.47
5576.78
5155.18
4842.35
4195.09
4269.47
4322.22
4366.52
4353.31
4292.04
4190.12
4743.32
5437.8
5662.04
6634.86
5996.99
5705.95
5070.27
4777.98
4365.65
3729.04
4042.2
4337.03
5062.29
5576.8
6482.88
7293.31
7561.55
6698.81
6249.99
6506.87
6741.13
6875.92
6821.28
6577.56
6560.68
6711.84
7551.78
7339.45
6458.78
5430.88
4898.2
4224.11
3960.28
3719.72
3064.91
3409.25
3951.28
4855.62
5497.27
6089.68
7046.19
7779.91
6540.73
5478.25
5209.04
5233.77
5302.43
5267.15
5266.84
5791.85
6526.48
7425.82
7019.05
6205.41
5530.41
4801.43
3859.2
3345.87
3027.27
2642.74
3173.29
3858.18
5058.44
5971.26
5773.09
6047.89
6763.91
6143.98
5182.72
4688.98
4542.95
4533.21
4586.18
4783.56
5322.74
5966.53
6451.58
6058.21
5958.43
6244.24
5082.03
3837.57
3153.77
2644.24
2528.66
3411.11
4086.83
5186.79
5765.6
5306.58
5229.65
5715.34
5577.19
4960.24
4420.13
4087.28
3974.7
4159.19
4549.41
5030.93
5360.76
5469.28
5260.24
5488.36
5950.75
5168.18
4090.14
3426.72
2520.2
5091.77
7671.11
6226.22
4825.64
5004.04
4652.08
4561.31
4964.28
5039.08
4629.83
4085.06
3652.54
3500.43
3762.23
4243.74
4674.95
4826.88
4769.7
4602.52
4811.07
5146.37
4955.7
6661.8
8172.48
5950.13
11581.7
23085.5
7844.62
4238.41
4308.23
4089.31
4037.36
4392.31
4541.86
4248.03
3728.6
3258.76
3089.63
3377.44
3882.76
4270.58
4340.03
4239.18
4069.75
4215.93
4410.07
4373.41
8363.32
23272.9
12725.5
13743
19480.1
6903.3
3779.36
3769.09
3634.1
3599.4
3924.43
4089.44
3855.81
3367.68
2907.57
2734.22
3009.49
3501.46
3865.83
3898.93
3795.57
3622.28
3721.27
3838.56
3886.44
6928.53
18923.3
13538.4
13047.8
19568.4
5832.08
3432.05
3333.17
3240.85
3227.29
3514.75
3678.64
3476.8
3018.36
2588.13
2433.39
2690.96
3154.61
3496.01
3506.84
3399.35
3251.39
3316.69
3402.07
3539.19
5961.52
20128.9
12954.9
12700.6
19216.1
5186.03
3161.07
3002.29
2917.3
2923.21
3167.21
3315.24
3134.06
2714.38
2320.12
2180.05
2414.9
2846.26
3160.73
3164.68
3060.4
2938.11
2982.65
3074.72
3267.41
5382.2
20297.2
12742.5
12480.1
19183.8
4722.41
2916.85
2738.21
2646.83
2670.92
2871.16
2995.1
2831.55
2453.34
2093.1
1965.13
2175.84
2569.02
2855.82
2862.82
2768.39
2667.49
2692.74
2804.73
3004.42
4888.65
20064.5
12683.5
12536.4
17757.8
4241.56
2695.57
2524.77
2422.97
2454.98
2614.27
2706.66
2551.19
2216.07
1897.25
1783.22
1976.14
2333.08
2590.78
2605.22
2523.3
2440.56
2458.86
2592.92
2786.94
4466.17
18913
12678.3
12367.4
16879.7
3919.14
2515.82
2350.62
2241.35
2271.15
2395.71
2461.14
2315.64
2017.72
1731.68
1627.76
1801.06
2121.33
2354.33
2378.56
2312.34
2247.3
2266.35
2407.25
2594.28
4145.1
18205.3
12535.6
12036.8
16481.9
3691.76
2361.5
2201.82
2096.35
2112.89
2205.66
2247.24
2109.16
1846.56
1590.53
1493.88
1648.84
1932.34
2140.53
2177.71
2128.9
2080.5
2104.66
2242.81
2426.03
3836.88
16768.4
12424.9
11785.1
15411.2
3494.83
2230.78
2064.25
1970.35
1977.94
2037.76
2053.7
1921.55
1689.85
1464.31
1378.34
1521.15
1777.74
1964.19
2006.55
1972.53
1941.68
1970.76
2097.01
2288.62
3645.08
15957.7
12171.4
11410.3
14164.2
3338.22
2128.02
1943.15
1858.21
1859.9
1893.49
1890.11
1763.62
1559.42
1357.52
1277.78
1406.97
1635.18
1801.56
1853.41
1836.14
1822.25
1851.55
1962.58
2171.79
3444.21
14611.2
11881.4
11091.5
13366.7
3222.49
2051.89
1835.79
1755.22
1753.97
1768.81
1750.02
1629.95
1447.02
1263.86
1190.52
1306.45
1512.45
1663.91
1720.53
1717.45
1715.65
1743.16
1845.12
2082.08
3283.34
13478.4
11524.4
10809.9
12178.6
3094.58
1992.58
1743.85
1664.69
1655.16
1656.11
1621.68
1506.37
1344
1180.65
1113.93
1221.37
1408
1544.41
1604.73
1613.96
1618.45
1648.58
1747.79
2013.78
3181.29
12770.8
11136.1
10494
11260.3
2977
1951.22
1669.21
1583.69
1562.95
1556.97
1512.63
1403.3
1257.03
1107.8
1046.61
1143.29
1313.38
1438.35
1500.64
1520.85
1528.58
1563.68
1666.61
1961.73
3084.98
11727.3
10819.6
10200.4
10619.4
2853.2
1914.82
1619.51
1510.87
1480.93
1466.66
1416.31
1311.57
1179.92
1043.96
987.08
1075.22
1229.23
1343.84
1408.44
1435.28
1448.66
1492.25
1609.46
1925.63
2951.8
10857.5
10514.6
9912.16
9932.89
2730.63
1883.08
1585.05
1447.35
1405.87
1382.63
1328.68
1229.64
1109.41
985.249
934.111
1015.27
1158.45
1263.92
1327.1
1356.95
1377.48
1428.1
1573.33
1898.86
2832.67
10322.5
10230.9
9655.29
9445.02
2627.62
1878.22
1564.18
1395.21
1340.21
1307.67
1250.68
1157.72
1048.14
934.342
886.752
961.028
1091.6
1189.09
1251.58
1285.65
1312.67
1373.86
1548.85
1888.56
2703.26
9678.37
9949.63
9400.49
9171.02
2530.88
1869.96
1553.7
1358.66
1280.46
1240.08
1181.08
1094.68
994.088
887.899
844.263
912.004
1033.55
1123.61
1183.14
1221.71
1254.15
1335.85
1540.29
1883.03
2583.79
9326.29
9686.9
9116.76
8724.92
2412.56
1829.22
1559.16
1334.3
1229.58
1179.25
1116.9
1035.24
942.94
845.875
806.139
869.29
981.893
1064.99
1122.84
1165
1204.47
1309.38
1546.81
1852.71
2474.11
9176.12
9415.88
8858.18
8469.51
2302.99
1778.93
1578.22
1321.29
1190.11
1126.58
1061.04
983.992
898.842
808.081
771.395
828.971
934.483
1011.45
1067.4
1115.21
1166.67
1295.65
1558.61
1796.38
2366.72
8894.77
9129.42
8645.04
8287.95
2235.39
1727.17
1612.94
1319.34
1162.1
1083.24
1012.05
937.5
858.24
773.869
739.891
792.756
890.518
963.048
1019.16
1073.74
1140.98
1292.76
1609.23
1745.06
2271.58
8652.03
8836.12
8445.76
8086.42
2151.21
1659.63
1606.59
1328.58
1141.19
1050.75
969.528
895.33
820.821
741.832
710.9
760.186
853.011
921.135
978.347
1042.4
1121.51
1308.24
1627.38
1694.72
2284.49
8426.17
8616.89
8259.77
7920.02
2099.25
1591.05
1565.69
1363.06
1130.88
1026.58
935.599
858.689
787.397
713.151
684.387
729.884
816.808
882.573
943.447
1019.48
1111.26
1338.33
1588.86
1623.3
2203.14
8219.07
8429.5
8106.02
7748.99
2149.6
1531.28
1509.15
1417.31
1136.55
1006.98
910.589
828.345
758.079
686.74
659.926
702.132
784.638
849.638
916.904
1002.36
1120
1407.64
1534.54
1556.27
2179.67
8035.32
8263.18
7957.84
7600.1
2086.21
1469.67
1443.72
1428.35
1169.99
995.6
889.919
803.976
731.95
662.969
637.835
677.811
758.069
823.89
896.622
993.3
1163.85
1434.14
1471.65
1505.97
2226.5
7860.27
8125.8
7811.51
7432.38
2120.34
1426.26
1378.93
1382.17
1246.42
1002.34
875.474
786.738
712.083
643.367
618.487
656.818
736.194
804.745
880.79
999.993
1239.33
1391.35
1405.69
1452.18
2204.98
7692.83
7992.39
7666.77
7283.77
2171.32
1398.34
1322.04
1329.96
1276.97
1052.9
867.726
771.512
697.476
628.254
601.264
640.612
719.825
789.288
871.362
1048.01
1279.86
1338.95
1344.62
1412.56
2200.09
7527.45
7844.43
7450.53
7100.77
2157.34
1367.44
1271.85
1272.41
1239.44
1131.99
882.271
759.534
685.094
616.859
588.583
628.753
706.984
777.751
886.526
1134.58
1248.91
1281.08
1292.81
1392.22
2241.89
7318.6
7618.96
7167.88
6857.47
2155.57
1348.81
1228.89
1215.63
1196.91
1175.64
937.711
756.672
675.832
607.49
579.835
618.819
696.324
773.278
938.327
1188.67
1206.59
1221.55
1246.16
1368.46
2213.11
7066.06
7330.92
6529.83
6404.68
2141.34
1332.63
1192.46
1166.13
1151.09
1147.24
1029.01
784.737
671.877
599.825
572.016
610.493
690.093
796.295
1031.6
1165.48
1161.12
1170.52
1205.11
1345.08
2169.25
6598.55
6684.87
6365.71
9610.81
9241.59
7625.78
6049.62
4958.1
4235.65
3705.79
3251.27
2823.73
2405.93
2002.76
1637.13
1334.4
1092.43
911.417
777.926
677.638
600.173
542.321
496.928
459.601
427.502
397.438
368.225
339.358
310.395
282.092
264.455
331.325
6583.41
10116.1
9596.68
7866.42
6239.05
5133.19
4399.7
3867.01
3416.15
2997.54
2587.43
2183.58
1804.2
1475.66
1203.85
992.465
832.581
711.252
618.94
551.408
499.246
458.579
424.168
393.588
364.346
335.738
307.104
279.591
263.632
331.303
6879.64
10694.2
9950.67
8134.32
6461.19
5342.37
4595.58
4065.59
3621.86
3210.8
2804.62
2397.15
2002.31
1645.35
1339.2
1092.45
901.108
753.852
644.993
563.543
504.005
458.499
422.011
390.114
360.52
332.036
303.941
277.424
263.569
331.152
7194.45
11254.2
10458.1
8556.2
6808.84
5630.59
4857.47
4319.88
3881.82
3475.86
3073.02
2662.55
2252.72
1864.74
1518
1226.33
995.182
817.535
684.783
586.862
515.608
462.99
422.671
388.443
357.833
329.151
301.531
275.875
263.972
331.555
7441.76
11843.4
11072.7
9089.17
7249.77
5992.21
5180.76
4626.67
4188.62
3788.94
3387.71
2971.33
2543.04
2126.35
1734.92
1395.21
1118.78
902.711
739.999
620.308
534.023
471.813
425.595
388.035
355.748
326.636
299.209
274.512
264.481
332.511
7702.92
12480.9
11745
9698.95
7750.5
6408.5
5553.99
4978.73
4533.67
4131.92
3729.92
3307.06
2862.73
2418.93
1988.61
1600.3
1274.57
1013.09
813.556
666.236
561.779
486.242
431.593
389.443
354.676
324.815
297.263
273.616
265.44
334.073
7984.91
13154
12479.3
10375.7
8320.58
6884.22
5981.61
5378.69
4919.3
4510.24
4104.7
3675.26
3217.79
2746.03
2280.82
1845.82
1466.67
1153.76
911.765
731.195
601.176
507.936
441.602
392.95
354.849
323.801
296.229
273.552
266.88
336.277
8262.88
13857.8
13278.8
11125.7
8967.84
7429.58
6469.73
5834.46
5350.73
4928.81
4514.47
4075.41
3605.07
3110.53
2614.35
2134.84
1701.33
1334.07
1042.94
819.972
656.03
539.331
457.537
399.915
357.286
324.183
296.354
274.459
268.86
339.197
8520.55
14570.3
14128.6
11953
9700.17
8058.42
7030.01
6353.26
5833.88
5390.69
4963.22
4510.19
4026.34
3513.71
2990.88
2471.63
1987.05
1563.16
1213.79
937.49
730.739
583.672
481.719
411.898
362.735
326.222
297.679
276.2
271.477
342.924
8750.67
15294.1
15036.9
12862.4
10519.7
8772.9
7667.67
6934.27
6369.77
5896.55
5448.69
4978.86
4482.41
3955.21
3409.24
2857.56
2326.23
1844.13
1428.57
1088.93
830.251
644.935
516.754
430.198
371.609
330.223
300.03
278.403
274.363
347.443
9008.55
16055.2
16010.5
13850.2
11420.2
9575.08
8384.01
7584.27
6958.47
6444.52
5969.97
5481.79
4973.17
4433.71
3868.24
3290.09
2717.31
2176.56
1690.28
1281.18
960.845
727.933
565.567
456.391
384.549
336.445
303.363
280.897
277.576
352.953
9295.22
16859.9
17030.4
14893.5
12395.3
10458.9
9187.45
8305.87
7602.9
7033.23
6526.68
6017.41
5495
4943.84
4362.71
3762.92
3154.34
2559.13
2004.66
1521.43
1130.8
838.627
631.942
492.433
402.601
345.307
307.848
283.945
281.431
359.816
9582.72
17661.2
18059.4
15973.9
13438.7
11426.5
10078.8
9103.13
8308.55
7668.04
7121.49
6586.29
6046.09
5482.68
4888.07
4269.55
3628.97
2987.27
2372.44
1817.2
1348.5
983.588
720.774
542.003
428.021
357.457
313.699
287.844
285.119
366.095
9811.17
18456.3
19067
17080.9
14547.5
12480
11059
9984.26
9081
8357.3
7761.12
7195.57
6633.41
6052.36
5442.96
4806.68
4140.25
3461.23
2794.8
2170.59
1620.27
1172.52
840.611
611.264
463.749
374.653
322.047
292.838
288.258
372.007
10048.6
19216.9
20039.6
18199.6
15713.7
13615.7
12133.5
10951.5
9923.82
9112.2
8461.89
7859.96
7267.23
6660.97
6032.88
5374.29
4687.52
3977.99
3266.68
2578.49
1947.66
1411.88
997.013
705.172
514.035
399.254
332.507
297.022
291.98
378.426
10235.1
19948.3
20995.3
19321.1
16923.2
14834.5
13310.9
12003.3
10852
9964.36
9247.47
8596.13
7960.29
7317.36
6663
5977.81
5267.23
4530.36
3779.07
3034.77
2329.56
1704.51
1197.07
827.832
580.47
430.697
345.972
302.681
296.676
385.259
10505.6
20553.2
21909.5
20424.1
18149.2
16129.7
14589.8
13159.5
11893.7
10927.9
10134.6
9415.28
8722.83
8030.38
7338.64
6621.91
5881.81
5112.63
4324.69
3531.89
2758.41
2046.81
1443.43
985.013
668.07
472.197
363.57
310.393
299.262
392.479
10634.7
21115.6
22715.2
21487.5
19383.5
17489.5
15967.6
14437.4
13068.9
12018.6
11140.7
10335.6
9570.95
8815.59
8073.41
7313.89
6537.17
5731.07
4904.9
4065
3229.79
2437.46
1738
1181.38
781.072
526.413
386.071
318.554
302.038
398.909
10800.9
21473.2
23325.5
22444.4
20597.1
18899.7
17444.6
15854.5
14398.4
13253
12278.4
11378.4
10520.3
9689.32
8881.42
8065.96
7239.16
6389.07
5518.95
4629.58
3738.17
2872.63
2080.58
1420.66
923.095
596.183
414.698
328.211
304.897
405.349
10859.4
21808.8
23789
23240.2
21757.3
20345.5
19022.8
17427.4
15898.1
14647.7
13565.7
12558.1
11590.5
10666.1
9776.7
8889.25
7997.45
7090.38
6166.84
5224.5
4277.05
3345.5
2467.22
1704.76
1099.22
685.987
451.654
340.266
307.835
409.696
10944
21906.9
23978.5
23786.3
22824.4
21805.9
20706.4
19169.9
17580
16223.2
15024.5
13893.9
12801.5
11761.4
10772.6
9795.25
8821.17
7841.97
6853.13
5850.81
4844.44
3848.04
2889.47
2032.45
1314.63
801.664
500.523
356.181
311.616
413.408
10956.9
21957.5
23923.1
24088.5
23750.6
23267.7
22497.6
21087.5
19459.9
17996.2
16669.9
15400.1
14166.7
12995.7
11883.8
10796.6
9721.45
8652.6
7582.53
6506.93
5432.72
4367.05
3339.13
2395.53
1569.69
946.931
564.633
377.549
316.86
417.069
11046.1
21743.6
23562.8
24109.9
24560.6
24745.9
24398.4
23182.4
21550
19984.2
18521.4
17097.3
15705.6
14386.5
13129.7
11907.3
10708.2
9528.76
8357.79
7191.84
6036.12
4900.25
3810.09
2782.58
1858.41
1122.43
645.991
405.202
323.334
420.334
10880.2
21514.1
23055.8
24061.8
25348.5
26271.8
26411.4
25457.5
23861.9
22208
20603.1
19008.2
17439.8
15955.2
14532.3
13144.1
11792.9
10479
9188.66
7920.02
6679.14
5474.24
4312
3196.8
2178.88
1329.86
748.335
441.289
331.871
423.412
10342.4
22169.2
23099.9
24292.5
26317
27892.5
28548.8
27906.9
26402.5
24687.8
22940.1
21157
19389.7
17716.3
16103.2
14522.9
12989.1
11519
10097.4
8720.23
7391.71
6108.64
4860.46
3654.11
2540.71
1578.52
879.996
489.957
343.818
427.312
329.102
263.934
281.568
310.909
339.683
368.835
398.805
429.679
462.628
501.252
544.025
603.008
680.617
781.576
911.849
1085.84
1317.43
1616.13
1976.09
2370.62
2782.69
3208.63
3668.88
4203.2
4943.4
6068.47
7686.51
9332.02
9696.37
6421.84
328.361
263.197
279.406
307.477
336.141
365.184
394.695
426.397
461.642
503.429
553.871
620.97
711.355
833.304
989.027
1192.79
1454.24
1775.85
2149.29
2544.25
2950.56
3370.19
3829.81
4365.94
5110.81
6249.03
7917.36
9681.81
10199.6
6649.91
328.26
262.806
277.363
304.263
332.885
361.759
391.062
423.004
461.069
507.284
566.356
645.066
751.369
897.125
1084.03
1322.58
1617.7
1966.23
2353.98
2754.38
3158.21
3572.74
4027.09
4564.99
5311.29
6463.59
8179.39
10030.8
10784.4
6947.99
329.044
262.912
276.099
302.114
330.518
359.413
389.561
423.262
464.475
517.215
586.514
682.642
811.52
984.166
1210.72
1492.74
1828.45
2206.59
2607.89
3012.37
3416.23
3827.3
4280.25
4826.1
5597.33
6801.24
8594.09
10533.6
11344.9
7272
330.264
263.599
275.266
300.509
328.55
357.559
389.116
425.914
471.241
533.248
618.048
734.745
892.98
1102.67
1371.84
1700.65
2080.1
2488.95
2908.28
3318.16
3720.29
4129.6
4586.86
5148.29
5954.89
7241.54
9123.68
11147
11936.9
7525.64
332.221
264.739
274.929
299.235
326.957
356.663
390.315
431.437
484.191
558
661.792
804.857
998.367
1253.5
1570.61
1948.01
2365.67
2803.49
3239.99
3661.17
4065.26
4472.96
4937.16
5517.05
6365.65
7736.57
9724.89
11819.1
12575
7796.59
334.929
266.221
275.008
298.471
326.264
357.055
393.485
440.654
504.324
594.357
722.674
898.709
1134.28
1441.54
1812.85
2240.02
2695.82
3158.8
3610.92
4042.18
4450.31
4860.9
5335.74
5940.85
6835.41
8299.24
10396.4
12548.3
13249.9
8090.45
338.173
268.188
275.607
298.587
326.696
359.533
400.081
455.356
533.674
646.008
806.576
1024.75
1309.99
1673.37
2101.53
2577.13
3069.79
3557.07
4021.49
4459.63
4875.29
5295.71
5788.18
6424.37
7376.15
8942.74
11145.1
13349.1
13959.8
8375.46
342.398
270.728
276.947
299.642
328.545
364.537
410.875
477.251
574.8
716.998
917.995
1189
1533.48
1954.88
2439.02
2958.09
3482.36
3991.64
4468.38
4915.12
5341.26
5779.13
6302.48
6977.53
7997
9669.88
11968.7
14199.3
14681.8
8645.66
346.017
273.539
278.84
301.498
331.819
372.138
427.085
508.557
631.067
810.443
1060.94
1394.72
1808.08
2289.27
2824.35
3380.35
3931.42
4458.53
4947.55
5407.71
5850.79
6315.33
6883.31
7609.76
8705.53
10486.5
12878.3
15108.1
15408.9
8882.8
349.674
276.574
281.323
304.366
336.715
382.828
449.674
552.124
706.707
932.279
1242.4
1647.54
2132.68
2674.01
3252.53
3838.83
4411.54
4952.55
5454.23
5931.58
6400.51
6903.2
7532.22
8324.58
9496.69
11387.2
13868
16080.9
16167.8
9126.84
354.396
279.768
284.247
308.293
344.104
397.789
480.507
610.787
807.317
1089.59
1469
1948.7
2503.93
3101.59
3716.9
4327.11
4916.63
5470.18
5986.81
6485.29
6986.89
7540.12
8246.29
9117.65
10372.6
12357.7
14915.9
17105
16977.1
9410.29
360.382
283.157
287.478
313.404
354.673
419.258
523.137
689.018
938.085
1290.38
1747.08
2299.41
2916.95
3563.01
4210.29
4839.58
5443.41
6011.22
6548.18
7073.35
7614.32
8232.63
9030.47
9993.76
11333.7
13399.5
16005
18148.9
17798.6
9706.22
366.988
286.867
291.347
320.173
369.002
448.796
581.682
792.632
1106.1
1538.47
2079.05
2698.98
3369.11
4053.78
4726.11
5371.86
5991.04
6579.23
7140.95
7699.1
8289.33
8987.32
9889.54
10953.1
12383.7
14501.7
17115.4
19171.9
18615.5
9944.09
374.242
291.15
296.217
329.338
388.23
489.096
660.076
928.665
1319.2
1837.5
2456.7
3141.95
3857.38
4572.49
5263.95
5930.37
6568.19
7183.25
7778.75
8378.27
9025.17
9809.79
10831.8
12012.8
13509.6
15660.1
18234.9
20156.9
19390.6
10194
384.143
296.788
302.217
341.58
414.543
544.11
764.445
1104.01
1582.31
2187.61
2881.04
3623.14
4377.29
5118.76
5833.68
6525.2
7188.69
7841.66
8483.02
9134.3
9850.11
10720.6
11862.2
13169.7
14718.8
16863.8
19356
21121.3
20152.4
10390.7
391.152
299.861
309.197
357.102
449.45
617.281
899.515
1322.84
1894.59
2584.33
3344.78
4135.6
4925.02
5698.52
6442.7
7165.72
7866.5
8569.74
9271.38
9993
10788
11742.5
12993
14425.5
16006.4
18087.4
20456
22047.1
20784.5
10685.8
397.403
302.476
316.617
375.857
494
711.738
1069.78
1587.33
2253.1
3022.25
3843.49
4678.63
5505.32
6316.21
7099.07
7865.93
8618.93
9384.33
10161.7
10972.3
11854.7
12898.6
14243.9
15779.7
17358.6
19319.2
21518.9
22874.1
21376.3
10821.9
401.874
304.143
324.401
398.713
551.102
831.682
1279.62
1897.72
2654.44
3496.31
4373.74
5253.93
6124.59
6979.67
7815.88
8640.39
9463.14
10302.5
11175
12086.1
13068.4
14210.2
15638.9
17238.3
18764.3
20536.3
22490
23512.5
21761.7
11006.5
405.461
306.125
333.735
427.763
624.2
981.231
1530.53
2250.64
3092.7
4001.15
4932.54
5865.74
6789.02
7701.48
8605.5
9503.8
10412.6
11343.6
12328.3
13351.7
14443.3
15689
17194.9
18805.6
20211.2
21701.9
23303.1
24001.3
22132.4
11082.9
409.589
309.729
346.379
466.327
718.703
1165.85
1822.69
2640.87
3562.71
4534.43
5526.04
6521.26
7508.8
8493.13
9480.65
10470.8
11481.3
12528.6
13638.7
14789.5
16000.1
17351.7
18919.9
20486.1
21681.3
22783.9
23877.7
24207.2
22262
11190.7
413.565
314.809
363.266
517.34
839.356
1390.05
2156.33
3063.66
4057.36
5096.9
6156.84
7224.9
8292.2
9365.97
10454.9
11557.6
12690.3
13872.5
15122.8
16415.3
17756.6
19213.7
20821.7
22279.2
23163.5
23733.4
24197.9
24173.5
22340.3
11222.8
417.06
319.89
384.966
583.082
989.453
1652.65
2523.21
3515.07
4576.04
5686.68
6823.69
7978.19
9143.74
10328.1
11541
12782.1
14059.4
15392.7
16798.6
18246.6
19729.2
21289.8
22908.9
24184.9
24673
24582
24261.2
23830.8
22131.7
11337.4
420.537
326.204
413.488
667.292
1171.77
1951.06
2919.94
3998.43
5135.6
6320.96
7542.22
8794.89
10075.1
11391.1
12755
14165.4
15610
17106.3
18683.5
20304.1
21936.5
23592.6
25187.8
26209.9
26237.7
25438
24279.8
23340
21875.5
11177.8
425.148
336.08
451.448
776.708
1393.37
2290.47
3359.54
4529.96
5755.08
7022.11
8334.65
9696.46
11105
12572
14115.5
15721.7
17355.4
19036.8
20804.3
22614.6
24401.1
26131.8
27656.8
28369
27909.9
26468.3
24600.9
23389.4
22382.3
10636.6
18799.3
19668.9
20469.7
21420.3
22348
23303.6
24255.4
25206.1
26150.6
27083.9
28006.2
28915.4
29811.6
30694.3
31564
32421.9
33271.2
34123.4
35000.8
35856.1
36655
37408.6
38200.7
39010.1
39789.5
40509.5
41199.9
41872.3
42525.3
43154.5
43756.3
44327.3
44864.7
45366.3
45829.6
46252.3
46632.1
46965.4
47247.7
47476.7
47649.1
47764.3
47810.7
47817.7
47828.9
47780.3
47666.3
47477
47207.1
46847.7
46388.4
45893.3
45334.1
44701.3
43988.7
43211
42384.4
41496.2
40539.4
39511.4
38423.4
37279.3
36078.9
34822.2
33513.5
32160.9
30771.5
29348.3
27898.1
26444.3
25024
23639.4
22285.9
20965.5
19681.4
18436.7
17236.2
16081.4
14975.5
13922.1
12916.4
11961.5
11058.6
10202.6
9401.49
8660.89
7973.9
7332.29
6734.33
6180.87
5671.77
5203.49
4773.34
4378.41
4015.17
3680.31
3370.6
3082.54
2813.24
2560.72
2323.12
2098.72
1887.69
1689.89
1506.77
1338.56
1185.37
1047.65
926.401
822.083
734.371
662.264
604.485
559.416
525.231
500.295
482.588
469.614
459.842
453.168
448.151
443.674
439.075
434.004
429.283
47421.2
49173.6
51111.4
53234.4
55385.1
57559.6
59739.6
61920.3
64097.2
66266.5
68427.2
70579
72721.6
74853.5
76973.1
79077.9
81162.9
83223.4
85262.5
87272
89262.5
91240.8
93183.3
95073.7
96920.1
98738.7
100529
102282
103990
105645
107239
108767
110223
111601
112896
114101
115209
116211
117099
117863
118494
118981
119317
119503
119505
119313
118945
118393
117658
116743
115648
114355
112917
111309
109533
107585
105510
103275
100872
98302.8
95586.2
92728.5
89728.9
86592.1
83331
79967.1
76514
72984.7
69390.2
65744.6
62039
58324.2
54692
51178.6
47789
44527.5
41397.5
38405.9
35561.3
32865.6
30319.9
27928.9
25687.5
23602.7
21690.3
19946.8
18341.9
16859.4
15500.9
14267.2
13150.2
12140.3
11230.2
10410.2
9667.81
8991.08
8367.53
7785.6
7234.6
6708.31
6200.74
5707.11
5226.79
4757.99
4305.15
3870.04
3453.4
3055
2677.7
2324.66
2000.23
1707.63
1447.96
1221.85
1028.48
866.575
734.706
630.227
547.982
484.948
439.395
408.543
386.435
366.629
349.106
67130.7
69347.7
71860.3
74575.7
77360.7
80177.5
83009.3
85849.7
88694.4
91541.6
94390.9
97240.5
100088
102930
105762
108577
111369
114135
116870
119603
122337
125047
127709
130322
132902
135460
137981
140455
142870
145216
147482
149661
151746
153731
155609
157369
159002
160496
161838
163015
164014
164819
165419
165798
165932
165813
165444
164828
163973
162893
161576
160021
158254
156274
154081
151582
148916
146038
142918
139564
135989
132207
128206
123987
119567
114988
110265
105416
100468
95457
90412.5
85357.8
80305.6
75306.9
70460.5
65796.7
61326
57056.3
52994
49143
45506.6
42085.9
38879.1
35887.6
33116.3
30559.4
28196.1
26013.8
24006
22167
20486.1
18949.9
17547.9
16267.5
15099.1
14031.1
13047.9
12136.9
11286.5
10488.5
9735.45
9021.58
8344.05
7697.52
7082.11
6496.84
5939.9
5408.6
4899.38
4412.31
3948.78
3510.14
3097.36
2712.25
2354.66
2024.61
1726.78
1462.88
1233.21
1038.14
877.64
751.865
653.26
570.514
502.971
85759.8
88352.5
91289.5
94462.4
97742.4
101075
104439
107828
111237
114666
118112
121572
125041
128512
131978
135431
138863
142270
145654
149048
152461
155844
159182
162485
165770
169037
172258
175421
178511
181514
184422
187225
189918
192492
194941
197254
199419
201422
203246
204876
206295
207484
208422
209086
209451
209506
209254
208704
207870
206764
205384
203735
201822
199644
197200
194462
191452
188174
184607
180740
176485
171990
167196
162082
156665
151033
145184
139135
132926
126626
120275
113904
107548
101238
94984.5
88846.4
82937.3
77311.7
71964.1
66902.9
62130.2
57648.2
53453.6
49538.9
45898.2
42519.3
39385.6
36481.9
33795.8
31317.3
29032.7
26927.6
24990.6
23207.1
21562.9
20046.9
18643.8
17343.5
16132.2
15003.2
13947.9
12958.5
12030
11156.7
10337.2
9568.16
8844.84
8163.47
7513.68
6891.52
6297.23
5729.13
5183.19
4660.35
4163.8
3695.53
3253.14
2836.97
2452.93
2104.19
1793.3
1526.25
1298.73
1095.29
918.538
104520
107467
110773
114337
118049
121838
125681
129569
133499
137466
141466
145493
149540
153596
157655
161707
165746
169771
173791
177814
181845
185848
189816
193764
197704
201624
205484
209267
212958
216543
220012
223361
226586
229682
232642
235457
238114
240599
242896
244985
246845
248453
249778
250780
251432
251723
251665
251277
250577
249580
248283
246681
244768
242544
240009
237161
234010
230551
226761
222599
218032
213084
207744
201983
195716
189149
182326
175204
167841
160343
152754
145108
137450
129850
122337
114925
107642
100542
93743.4
87340.5
81316.9
75677.2
70405.4
65488.1
60912.5
56659.2
52707.8
49037.6
45629.5
42462.3
39519.2
36784.3
34242.6
31879.4
29679.7
27630.5
25719.8
23937.8
22274
20719.4
19265.2
17906.2
16635.9
15449.9
14345.7
13313.1
12345.4
11440.3
10588.2
9781.33
9015.82
8286.98
7587.77
6915.31
6273.31
5666.84
5089.46
4534.28
4008.8
3523.82
3080.17
2679.22
2318.68
1979.02
1662.91
123315
126592
130219
134126
138215
142404
146669
150998
155385
159824
164306
168823
173364
177920
182483
187047
191608
196169
200740
205319
209857
214337
218794
223237
227672
232066
236377
240583
244668
248620
252437
256119
259668
263086
266368
269509
272502
275333
277986
280438
282659
284618
286269
287557
288452
288962
289118
288949
288475
287703
286617
285198
283436
281338
278914
276176
273134
269761
266005
261824
257184
252075
246481
240395
233790
226740
219309
211480
203234
194721
186139
177438
168664
159937
151275
142710
134291
126064
118073
110338
102971
96118.8
89733.7
83792.5
78274.8
73144.5
68367.3
63915.1
59758.2
55872.7
52237.1
48828.8
45628.9
42621.4
39793.2
37132.5
34629.4
32274.8
30060
27977.9
26022.1
24189.3
22472.9
20865.8
19362.4
17961.7
16654.7
15434.1
14289.2
13213.1
12200.1
11244.5
10337.5
9472.64
8652.35
7879.88
7147.69
6450.31
5789.33
5168.44
4591.04
4061.87
3581.98
3125.69
2684.05
141639
145199
149073
153262
157653
162157
166748
171414
176143
180926
185752
190609
195487
200378
205273
210169
215062
219954
224848
229731
234552
239285
243944
248581
253192
257715
262106
266345
270423
274334
278086
281691
285162
288507
291728
294831
297810
300659
303360
305875
308170
310204
311915
313247
314189
314784
315095
315152
314968
314530
313796
312729
311319
309582
307536
305214
302631
299728
296410
292628
288342
283527
278157
272227
265740
258748
251284
243373
235005
226275
217312
208115
198609
189100
179654
170227
160872
151732
142855
134303
126126
118296
110900
103990
97604.9
91668.6
86131
80950.8
76083
71495.9
67163.8
63064.4
59178.5
55491.3
51987.7
48657.1
45492.2
42484.9
39631
36928.3
34374.3
31965.4
29696.7
27562.6
25559.5
23685.9
21929.5
20286.8
18746.9
17306.4
15956.5
14691.4
13502.9
12381.9
11329.6
10342.7
9416.53
8547.63
7733.2
6966.49
6248.34
5582.54
4976.33
4408.62
3858.59
158778
162540
166556
170934
175504
180181
184941
189767
194643
199557
204496
209447
214401
219346
224275
229178
234051
238887
243677
248404
253038
257580
262030
266390
270660
274771
278671
282333
285760
288960
291964
294809
297524
300127
302627
305033
307354
309593
311721
313680
315449
317003
318277
319229
319903
320389
320766
321042
321218
321252
321093
320658
319854
318720
317336
315771
314109
312313
310073
307286
304016
300207
295839
290898
285392
279339
272743
265621
257984
249890
241425
232656
223572
214283
204795
195126
185197
175569
166175
157096
148449
140273
132552
125253
118317
111757
105572
99777.1
94291.2
89069.8
84088.1
79319.7
74742.9
70346
66123.1
62070.3
58184.2
54465.2
50911.3
47518.2
44285.8
41213.8
38300.9
35546.5
32949.5
30505.7
28206.1
26047.1
24021.1
22123.7
20347.6
18689.1
17140.3
15692.9
14345.6
13089.6
11920.2
10836.2
9834.35
8898.4
8020.39
7208.67
6465.76
5776.33
5123.33
173891
177732
181741
186159