/*--------------------------------*- C++ -*----------------------------------*\
| =========                 |                                                 |
| \\      /  F ield         | OpenFOAM: The Open Source CFD Toolbox           |
|  \\    /   O peration     | Version:  2112                                  |
|   \\  /    A nd           | Website:  www.openfoam.com                      |
|    \\/     M anipulation  |                                                 |
\*---------------------------------------------------------------------------*/
FoamFile
{
    version     2.0;
    format      ascii;
    arch        "LSB;label=32;scalar=64";
    class       volScalarField;
    location    "0.01007";
    object      p;
}
// * * * * * * * * * * * * * * * * * * * * * * * * * * * * * * * * * * * * * //

dimensions      [1 -1 -2 0 0 0 0];

internalField   nonuniform List<scalar> 
13875
(
951599
984300
973562
975870
973640
974527
975046
974542
974908
975112
975051
975077
974660
974773
974834
974697
974632
975330
975172
973973
973384
975645
972324
982456
945272
733802
659560
672137
677135
669249
669712
677225
678757
679229
679218
678899
678504
670228
669169
670407
678028
679296
679307
677535
669949
669576
676914
672245
657208
730872
736892
635538
664311
653650
649260
648095
648185
649513
649918
649284
648124
648976
645363
645302
645231
648908
646254
648213
647929
647642
648544
652167
661956
632144
733624
743538
636183
665195
653811
649567
648282
647341
646658
645953
644999
644000
644651
645402
645403
645260
644546
643513
644605
646116
647791
648827
652292
662706
632750
739319
757375
639193
667749
654523
650422
648803
647480
646716
645998
645040
644022
644685
645537
645666
645379
644577
643610
644688
646236
648225
649608
652885
664993
635393
750517
759060
647854
673520
656505
652220
649877
647929
646922
646176
645198
644146
644817
645818
646192
645637
644702
643893
644958
646635
649151
651281
654756
670573
643125
751881
765074
668371
685751
661431
655868
651887
648930
647448
646613
645591
644549
645200
646395
646768
646135
645004
644519
645670
647713
651206
654916
660357
682095
665819
755941
791260
718411
711682
674780
663619
656179
651211
648801
647658
646588
645539
646049
647511
647928
647192
645806
645798
647166
649958
655318
662288
673144
707080
715321
781809
908679
827981
766558
704412
679076
664643
655946
651814
649958
648798
647713
647954
649747
650261
649388
647771
648407
650297
654576
663394
676940
700896
760200
823125
909582
1.52415e+06
1.02959e+06
833606
739297
697378
674887
662712
657042
654441
653159
652152
652117
654176
654830
653930
652261
653348
655834
661575
673913
695757
736811
829396
1.02526e+06
1.5171e+06
2.90561e+06
1.39289e+06
957171
796080
725545
691401
674925
667168
663613
661992
660939
660582
662591
663488
662890
661656
662933
666201
673646
689628
722318
789380
941122
1.35128e+06
2.86056e+06
5.60422e+06
2.34492e+06
1.28622e+06
936077
789342
727979
701125
688795
683176
680537
679061
678428
679830
680993
681156
681323
683249
688555
700660
727072
786977
926009
1.25242e+06
2.27453e+06
5.57449e+06
5.38979e+06
4.84252e+06
2.31119e+06
1.39965e+06
979002
827712
766082
740509
728921
723393
720675
719550
719695
721030
722586
725319
730584
742295
769094
834709
990118
1.38727e+06
2.1831e+06
4.87594e+06
5.3433e+06
4.84014e+06
4.65002e+06
4.7148e+06
3.98695e+06
1.63718e+06
1.13605e+06
954382
884472
852803
837678
830739
827575
826203
827791
831754
840188
857677
894053
975559
1.20155e+06
1.83498e+06
4.03254e+06
4.68971e+06
4.71838e+06
4.76408e+06
4.02936e+06
4.12858e+06
4.50024e+06
4.25612e+06
3.99991e+06
2.50896e+06
1.66247e+06
1.37566e+06
1.26332e+06
1.21579e+06
1.1965e+06
1.18852e+06
1.18564e+06
1.18758e+06
1.19516e+06
1.21518e+06
1.26448e+06
1.38372e+06
1.69402e+06
2.68537e+06
4.11466e+06
4.24444e+06
4.5118e+06
4.2866e+06
4.26851e+06
3.53313e+06
3.46076e+06
3.929e+06
4.05752e+06
4.26709e+06
4.33993e+06
3.69651e+06
3.05389e+06
2.84565e+06
2.67948e+06
2.57384e+06
2.53348e+06
2.51836e+06
2.52392e+06
2.55354e+06
2.63658e+06
2.84634e+06
3.04449e+06
3.7543e+06
4.38977e+06
4.23657e+06
4.07885e+06
4.054e+06
3.57216e+06
3.74943e+06
2.55118e+06
2.69369e+06
3.06292e+06
3.49724e+06
4.20154e+06
5.13506e+06
6.78797e+06
7.59552e+06
7.9582e+06
8.05425e+06
8.12126e+06
8.1365e+06
8.15098e+06
8.14367e+06
8.14316e+06
8.08591e+06
7.98465e+06
7.67717e+06
6.80872e+06
5.10608e+06
4.19935e+06
3.56114e+06
3.15087e+06
2.81842e+06
2.70495e+06
1.43464e+06
1.72136e+06
2.31518e+06
2.99912e+06
4.17449e+06
5.58605e+06
6.77086e+06
7.4189e+06
7.66042e+06
7.63109e+06
7.55279e+06
7.48673e+06
7.47044e+06
7.48943e+06
7.55956e+06
7.66495e+06
7.72808e+06
7.4913e+06
6.80668e+06
5.57558e+06
4.11633e+06
2.93189e+06
2.19358e+06
1.62291e+06
1.3455e+06
696102
1.02987e+06
1.71159e+06
2.60738e+06
4.08556e+06
5.15459e+06
5.8308e+06
6.33759e+06
6.50099e+06
6.47381e+06
6.43057e+06
6.44547e+06
6.46594e+06
6.46707e+06
6.45671e+06
6.51895e+06
6.59679e+06
6.47855e+06
6.05204e+06
5.38908e+06
4.11645e+06
2.66847e+06
1.72915e+06
1.04329e+06
705368
384896
620122
1.14103e+06
2.20982e+06
3.63435e+06
4.3503e+06
4.68226e+06
5.01664e+06
5.24055e+06
5.39652e+06
5.54176e+06
5.65452e+06
5.69281e+06
5.6662e+06
5.55709e+06
5.40176e+06
5.23547e+06
5.01715e+06
4.74114e+06
4.43662e+06
3.66854e+06
2.19741e+06
1.13237e+06
608118
374693
960118
983803
1.1754e+06
1.88951e+06
2.89398e+06
3.38695e+06
3.71631e+06
4.10449e+06
4.42755e+06
4.65901e+06
4.83452e+06
4.94038e+06
4.96395e+06
4.94003e+06
4.82762e+06
4.63094e+06
4.36658e+06
4.0313e+06
3.68502e+06
3.40882e+06
2.87493e+06
1.85897e+06
1.1467e+06
970912
960802
1.01848e+06
981331
1.15993e+06
1.60594e+06
2.17123e+06
2.61922e+06
3.02298e+06
3.45946e+06
3.79588e+06
4.0321e+06
4.20029e+06
4.28833e+06
4.30264e+06
4.28024e+06
4.18337e+06
3.99445e+06
3.72677e+06
3.37349e+06
2.93847e+06
2.60709e+06
2.12897e+06
1.55999e+06
1.12333e+06
946213
986746
1.12631e+06
1.02037e+06
1.13388e+06
1.34526e+06
1.69487e+06
2.08392e+06
2.52848e+06
2.95819e+06
3.26445e+06
3.48375e+06
3.62892e+06
3.70165e+06
3.71488e+06
3.69015e+06
3.60468e+06
3.43952e+06
3.19865e+06
2.89345e+06
2.42273e+06
2.06035e+06
1.65571e+06
1.31023e+06
1.10176e+06
1.00762e+06
1.14012e+06
1.3194e+06
1.15094e+06
1.13641e+06
1.19189e+06
1.44244e+06
1.77823e+06
2.13608e+06
2.5314e+06
2.8022e+06
3.00428e+06
3.1266e+06
3.19073e+06
3.20452e+06
3.17893e+06
3.10329e+06
2.96004e+06
2.74295e+06
2.47315e+06
2.06036e+06
1.73727e+06
1.39541e+06
1.15355e+06
1.10872e+06
1.15861e+06
1.31006e+06
1.3762e+06
1.28074e+06
1.14429e+06
1.13169e+06
1.29709e+06
1.55763e+06
1.83946e+06
2.16778e+06
2.40096e+06
2.58104e+06
2.69571e+06
2.7538e+06
2.76742e+06
2.74368e+06
2.67667e+06
2.54992e+06
2.35566e+06
2.12204e+06
1.78845e+06
1.51446e+06
1.24677e+06
1.10851e+06
1.12186e+06
1.28623e+06
1.36353e+06
1.43322e+06
1.38434e+06
1.16082e+06
1.13216e+06
1.20589e+06
1.39708e+06
1.60823e+06
1.87553e+06
2.07218e+06
2.22819e+06
2.33103e+06
2.3816e+06
2.39404e+06
2.37313e+06
2.31492e+06
2.20111e+06
2.03267e+06
1.83569e+06
1.57444e+06
1.36848e+06
1.16603e+06
1.10887e+06
1.13796e+06
1.37012e+06
1.40944e+06
1.47607e+06
1.4148e+06
1.17972e+06
1.13218e+06
1.15124e+06
1.27179e+06
1.42863e+06
1.63623e+06
1.7984e+06
1.93027e+06
2.02053e+06
2.06519e+06
2.07776e+06
2.05845e+06
2.00571e+06
1.90763e+06
1.76428e+06
1.60276e+06
1.39692e+06
1.24386e+06
1.11951e+06
1.10897e+06
1.16519e+06
1.40865e+06
1.45243e+06
1.56498e+06
1.48554e+06
1.21398e+06
1.12875e+06
1.1103e+06
1.17437e+06
1.27994e+06
1.43948e+06
1.56911e+06
1.68034e+06
1.75705e+06
1.79634e+06
1.80992e+06
1.79304e+06
1.75022e+06
1.66855e+06
1.54904e+06
1.4162e+06
1.2588e+06
1.15449e+06
1.08865e+06
1.10775e+06
1.20355e+06
1.48551e+06
1.5415e+06
1.67366e+06
1.6018e+06
1.25558e+06
1.11742e+06
1.08083e+06
1.09774e+06
1.1605e+06
1.27958e+06
1.38421e+06
1.47455e+06
1.53748e+06
1.57272e+06
1.58381e+06
1.56867e+06
1.5286e+06
1.46202e+06
1.36489e+06
1.26098e+06
1.14477e+06
1.08432e+06
1.06413e+06
1.09775e+06
1.22976e+06
1.54309e+06
1.58792e+06
1.73159e+06
1.71061e+06
1.29974e+06
1.10915e+06
1.04869e+06
1.04453e+06
1.06654e+06
1.14934e+06
1.2285e+06
1.3021e+06
1.35338e+06
1.38174e+06
1.39226e+06
1.37774e+06
1.3457e+06
1.29226e+06
1.21431e+06
1.13231e+06
1.04955e+06
1.02766e+06
1.03299e+06
1.08979e+06
1.27303e+06
1.63775e+06
1.66684e+06
1.7317e+06
1.72526e+06
1.33894e+06
1.10622e+06
1.01539e+06
992709
991620
1.03903e+06
1.09811e+06
1.15571e+06
1.19673e+06
1.22214e+06
1.22994e+06
1.21975e+06
1.19159e+06
1.14914e+06
1.08907e+06
1.02971e+06
979879
981225
1.00148e+06
1.08266e+06
1.30191e+06
1.67218e+06
1.70544e+06
1.73626e+06
1.72451e+06
1.41109e+06
1.10696e+06
979739
937820
929298
953967
993862
1.03716e+06
1.068e+06
1.08574e+06
1.0926e+06
1.0842e+06
1.06325e+06
1.0302e+06
985351
944140
919183
926051
964930
1.08176e+06
1.3506e+06
1.67738e+06
1.73097e+06
1.74737e+06
1.71149e+06
1.46987e+06
1.1091e+06
953186
891990
878341
879885
904831
935710
958545
972967
977183
971448
953686
929780
898043
872272
868676
881249
935655
1.08388e+06
1.41486e+06
1.6806e+06
1.73155e+06
1.74725e+06
1.69192e+06
1.54251e+06
1.11821e+06
928031
849411
823327
818158
827523
849106
865185
875089
878899
874327
862816
846906
824747
812109
816611
838388
911826
1.09139e+06
1.5219e+06
1.67696e+06
1.72796e+06
1.74678e+06
1.66778e+06
1.54969e+06
1.14031e+06
917566
818364
778234
765246
764626
774813
785859
794305
796372
793400
783054
771711
761000
761036
771251
806106
898772
1.1082e+06
1.55138e+06
1.66839e+06
1.72003e+06
1.74269e+06
1.64663e+06
1.54449e+06
1.16132e+06
918255
787929
733904
715181
709479
712985
718742
723367
724948
722304
715852
711546
707019
711074
728353
778872
899561
1.14275e+06
1.55135e+06
1.64983e+06
1.71757e+06
1.73209e+06
1.61879e+06
1.53806e+06
1.20687e+06
924979
768719
700645
670942
660911
658029
660346
664472
664802
663299
657835
656301
659427
669202
696106
758740
903046
1.18635e+06
1.53549e+06
1.61769e+06
1.71456e+06
1.70876e+06
1.58596e+06
1.52598e+06
1.29729e+06
943142
754334
669015
632178
617075
612283
610864
612026
611953
611378
609101
610865
615316
627914
662700
742309
914708
1.27383e+06
1.50664e+06
1.58884e+06
1.70706e+06
1.66972e+06
1.56434e+06
1.49176e+06
1.34264e+06
963021
754818
648053
599617
579226
570019
567837
568445
567371
568229
565457
567686
577324
596672
641236
742884
942375
1.32893e+06
1.4594e+06
1.56404e+06
1.68803e+06
1.61675e+06
1.53879e+06
1.42462e+06
1.3411e+06
1.00633e+06
760795
629268
570951
545517
534919
530274
528888
528097
528734
529287
533861
543772
566759
622407
746152
977058
1.32731e+06
1.40223e+06
1.53575e+06
1.64373e+06
1.56535e+06
1.50681e+06
1.36476e+06
1.33644e+06
1.09261e+06
776461
629282
551805
518442
502297
497175
496671
494126
495971
495830
500244
515625
547216
622414
756765
1.046e+06
1.32242e+06
1.35048e+06
1.49682e+06
1.56764e+06
1.52658e+06
1.47324e+06
1.31252e+06
1.31731e+06
1.18166e+06
795643
631354
539019
495384
476978
468852
465628
464067
465345
468105
475776
492546
532425
626322
783299
1.18935e+06
1.31106e+06
1.30459e+06
1.44537e+06
1.4985e+06
1.48169e+06
1.4421e+06
1.27957e+06
1.27828e+06
1.1805e+06
836811
640694
539234
480372
452974
443476
441037
437772
440397
442345
451338
477451
530286
632500
819249
1.18785e+06
1.28305e+06
1.26988e+06
1.41129e+06
1.46049e+06
1.43343e+06
1.39739e+06
1.25197e+06
1.2173e+06
1.17263e+06
919558
661509
541722
471454
436970
422650
416791
414385
416515
421871
434769
466641
531664
648668
890928
1.17889e+06
1.22689e+06
1.24548e+06
1.38457e+06
1.41759e+06
1.3994e+06
1.35676e+06
1.23117e+06
1.1614e+06
1.14684e+06
1.03022e+06
693748
546186
471668
424816
404788
398176
394114
397836
402392
420441
466950
539101
685820
1.03942e+06
1.15802e+06
1.17102e+06
1.23056e+06
1.34873e+06
1.37749e+06
1.35899e+06
1.31894e+06
1.21161e+06
1.11866e+06
1.09518e+06
1.02726e+06
762370
561414
474423
422086
393625
381063
376982
380662
391975
416068
468484
553101
751072
1.03684e+06
1.11126e+06
1.12296e+06
1.21348e+06
1.3133e+06
1.34756e+06
1.31288e+06
1.27383e+06
1.19116e+06
1.08289e+06
1.04195e+06
1.01708e+06
902342
593874
481783
422784
388043
372145
364276
371087
385450
416359
473846
581862
883778
1.0248e+06
1.05491e+06
1.08567e+06
1.19729e+06
1.27663e+06
1.31078e+06
1.26589e+06
1.2354e+06
1.16743e+06
1.0571e+06
997318
990472
901086
652291
494651
424644
388232
367503
353304
366061
385721
419189
488534
644127
898279
997399
1.00705e+06
1.05842e+06
1.17184e+06
1.23308e+06
1.25906e+06
1.17152e+06
1.17768e+06
1.13637e+06
1.03796e+06
961007
939554
894600
774447
521804
432501
389919
367753
353425
366241
386846
426620
515825
766731
893436
943910
966721
1.03752e+06
1.1383e+06
1.17359e+06
1.16704e+06
1.03604e+06
1.09974e+06
1.07935e+06
1.013e+06
932817
892701
875254
795157
577586
451995
395614
369272
354577
367470
391499
444966
571222
798719
875692
889314
931538
1.01189e+06
1.08066e+06
1.09595e+06
1.03513e+06
102309
106517
105890
107459
106987
107173
105969
105082
104199
103796
103572
103440
103412
103315
102514
101646
100755
99677.5
97408.5
95925.3
94595.9
93556
92682.2
91817
90755.5
89762.9
88878.4
88144.6
87557.6
86883.3
101945
107135
105977
107743
107218
107495
106267
105255
104291
103853
103654
103582
103553
103322
102678
101848
100713
99154.5
97329.6
95977
94482.2
93603.5
92562.3
91758.5
90757.8
89771.8
88835.5
88135.5
87504.3
87297.7
102597
108085
106642
108335
108053
108401
106435
105416
104369
103874
103673
103655
103653
103330
102639
101789
100578
98808.9
97479.3
95724.8
94452.8
93536.4
92633.5
91704.8
90729.1
89746.9
88820.7
88195
87663.1
87558.8
104744
109017
107686
109272
109356
109078
106654
105496
104392
103912
103720
103678
103677
103296
102581
101464
100052
98630
97189.4
95589.4
94405.4
93466.5
92650.9
91649.5
90728.4
89764.2
88869.9
88237.9
87839
87612.4
106795
109987
108993
110477
110555
109460
106805
105539
104364
103808
103404
103209
102941
102588
101587
100492
99267.9
97752.2
96457.7
95257.7
94261.2
93433.6
92618.9
91604.2
90769.8
89844.9
88899.8
88261.2
87937.4
87761.3
108635
110993
110387
111782
111132
109624
106862
105553
104225
103333
102755
102450
102044
101524
100594
99608.1
98506.4
96995.8
95793.7
94720.3
94192.3
93348.9
92491.4
91603.3
90814.5
89964.7
88925.2
88337.8
88115.1
87992.8
110248
112077
111795
112953
111372
109681
106888
105550
104012
102807
102119
101762
101224
100443
99579.9
98649.6
97643.2
96402.2
95467.4
94615.8
94140.1
93335.8
92455.9
91604.7
90860.8
90140.5
89174.3
88721.9
88555
88439.1
111855
113228
113089
113530
111459
109707
106910
105540
103774
102315
101507
101075
100410
99620.9
98843.8
97990.9
97002.4
96119.2
95356.9
94652.3
94078.7
93326.8
92449.1
91623.4
91012.5
90429.7
89669.3
89373.7
89168.9
88989.2
113220
114303
113770
113774
111499
109716
106878
105485
103449
101791
100810
100251
99518.9
98830.8
98162.7
97373.1
96640.2
95989.8
95318.7
94637.4
93957.3
93341.5
92555.9
91902.2
91508
90943.3
90491.8
90307.1
90091.2
89775.9
114405
114829
114081
113862
111507
109562
106648
105226
103005
101168
100008
99382.5
98649.7
98071.3
97498.5
96902.2
96350.6
95907.4
95265.7
94532.4
93889.1
93352.1
92726.1
92346
92078.3
91561.3
91343.4
91223.1
91025.9
90722.6
115190
115025
114200
113891
111328
109256
106202
104797
102356
100342
99048.1
98384.7
97709.4
97242.2
96796.8
96433.2
96027
95632.9
94949.4
94504.9
93859.2
93369.2
93036.1
92884.3
92683.1
92339.2
92248.7
92148.5
92145.7
92064.7
115557
115077
114227
113639
110825
108688
105783
104152
101483
99292.7
97938.7
97258.6
96676.5
96318.4
96029.9
95868.7
95641.9
95310.2
94793.3
94495.9
93852.9
93415.9
93233.7
93154.9
93021.2
93021
93096
93086.7
93582.7
93869.2
115654
114735
114021
113043
110115
107895
105191
103403
100357
98039.3
96688.6
96010.8
95536.1
95331
95263
95261.1
95180.3
95009.9
94711.5
94575
94030.7
93580
93390.2
93354.1
93462.9
93677.6
94035.3
94409.2
95189.4
95424.2
115643
114107
113440
112169
109139
106879
104366
102542
98872.4
96589.5
95363.5
94772.3
94515.3
94436.7
94443.7
94637.1
94718.2
94753.2
94670.8
94621.8
94483.8
94162.2
94031.7
94041
94036.8
94451.5
95410.8
96225.1
96013.6
96321.5
115066
113225
112303
111050
107874
105637
103325
101286
97184.9
95133.7
94131.4
93682.7
93506.2
93456.7
93612.1
93999
94345.8
94558.2
94634.2
94653.2
94697.5
94709.6
94753.5
94993.2
95189.6
95989.9
96793.1
96968.4
97187.5
97365.5
114207
112137
111024
109536
106362
104175
102012
99405.8
95677.9
93857.9
92992.9
92617.5
92483.7
92453.3
92820.9
93233.7
93774.5
94286.6
94537.8
94659.6
94789
94959.6
95101
95458.5
95964.4
96902.4
97684.4
97827.4
99312.1
98566.4
112821
110527
109490
107754
104618
102568
100451
97496.9
94192.9
92593.3
91857.8
91548.6
91446.9
91431.3
91996.8
92541.8
93124.5
93854.8
94349.6
94658.8
94821.3
95060.7
95248.6
95705.4
96480.9
97517.2
98485.2
99282.8
100005
100084
111346
108832
107766
105832
102710
100870
98659.8
95637.2
92716.1
91323.2
90708.8
90474.1
90408.5
90412.7
91171.6
91805.7
92496.5
93316.8
94040.6
94563.6
94827.7
95099.7
95301.8
95838.5
96716.4
97792.2
98844.8
99920.4
100583
101163
109078
106667
105264
103678
100750
99022.1
96753.9
93875.9
91292
90088.1
89580.4
89394.4
89339.7
89427.8
90351.1
91075.7
91816
92744.3
93619.3
94334
94824
95110.1
95314.1
95895.3
96812.4
97881
98978.6
100214
101087
102245
106987
104473
103059
101371
98711.2
97072.6
94841.4
92228.9
89941.5
88864.3
88427.9
88274.5
88228.3
88467.9
89516.1
90341.7
91127.2
92101.2
93134.7
93979.3
94654.3
95095.5
95304.8
95922.4
96853
97907.3
99008.8
100327
101298
102397
103885
101742
100580
98971.7
96621.6
95059.1
92972.7
90659.6
88596.3
87642.6
87268.2
87148.7
87116.7
87486.7
88635.2
89565.4
90395
91397.5
92549
93496.1
94292.8
94750.6
94949.3
95930
96880.5
97915.6
99011.5
100357
101360
102348
101285
99155.2
98177.7
96524.3
94556
93024.8
91181.1
89123
87268.8
86416.4
86093.9
86002.8
85982.9
86473.5
87706.1
88712.5
89567.5
90578.1
91783.2
92707.3
93379.5
93907.3
94780.3
95903
96899.1
97914.1
99000.9
100361
101400
102374
97305.1
96141.5
95610.8
94356.5
92527.5
91092.4
89465
87609.4
85987.1
85218.8
84938.2
84874.7
84867.4
85465
86755.1
87774
88595.2
89555.5
90750.7
91659.1
92330.5
93291
94711.6
95890.1
96902.6
97910
98968.7
100353
101415
102309
94838.7
93600.9
93647
92251.8
90642.4
89268.7
87843.6
86148.9
84746.8
84070.1
83828
83783.1
83790.9
84464.4
85780.4
86771.5
87475.5
88331.5
89511.2
90524.4
91524.2
92984.3
94690.1
95924.4
96985.6
97911.6
98964.4
100677
101789
102311
85974.9
90898
91903.7
90652.6
88925
87726.8
86398.6
84751.4
83537.4
82964.5
82758
82713.4
82846.6
83482.3
84767.3
85701.4
86287.2
87073
88349.5
89629.9
91030
92828.4
94684.4
96123.8
97592.7
98771.7
100001
101319
102466
102876
85267.4
86224.3
86687.9
87790.8
87992
88847.6
90413.6
91541.4
92513.2
94333
95615.6
97677.6
99538.1
101253
102364
102607
102546
102379
102062
101844
101933
102261
103229
103838
105289
105446
106257
104792
105628
101544
85287.2
86274.2
86816.2
87664.1
88226.7
89086
90237.6
91505.8
92723.5
94276.9
95718
97138.9
98807.1
100748
101956
102241
102217
102088
101981
101872
102006
102448
103599
104074
105583
105647
106481
104947
106271
101210
85548
86295.4
86830.9
87554.4
88387.2
89225.6
90166.4
91214.9
92744.5
94227.8
95446.3
96778.2
98404.9
100087
101305
101819
101962
101913
101836
101866
102028
102585
104045
104856
106409
106438
107071
105559
107268
101897
85963.1
86253.4
86869
87580.6
88511.7
89315.3
90282.3
91226
92515.6
93659.5
94533.5
96010.9
97660.6
98957.7
100515
101433
101781
101757
101660
101727
101943
102652
104322
105296
107292
107730
108036
106626
108217
104114
86343.5
86514.3
87044.4
87766.2
88661.7
89377.5
90355.7
91302.5
92116.9
93172.2
94052.3
94986.6
96470.8
97812.8
98928.5
99870.3
100539
100907
101135
101396
101827
102703
104487
105546
107756
109386
109337
107903
109199
106222
86815
86886.1
87294.7
87949.8
88782.3
89541.5
90429.5
91259.8
91935.4
92844.9
93725.6
94494.3
95591.9
97094
98067.1
99025.6
99557.1
99999.3
100492
101112
101731
102726
104540
105647
107960
110188
110650
109314
110171
108113
87521.9
87409.6
87643.4
88197.7
89106.3
89757
90488.7
91252.2
91930.8
92595.3
93463.4
94229.1
95158.6
96432.7
97416.8
98254.7
98913.6
99417.1
100009
100707
101429
102733
104553
105678
108039
110536
112025
110774
111208
109823
88265
88061.9
88138.1
88563.1
89449.5
90141.9
90675
91288.7
91904.8
92460.8
93348.7
94121.8
94961.1
95923.3
96888.7
97722.3
98426.8
99040
99584.2
100179
101006
102644
104468
105695
108081
110675
112717
112124
112301
111470
89449.6
88934.6
88901.9
89168.5
89844.7
90619.5
90955.4
91379.2
91898.5
92531.3
93291.6
94071.1
94878.6
95556.9
96423.4
97201.4
97869.3
98484.1
99011.4
99592.6
100495
102309
104430
105701
108103
110732
113027
112945
113390
112867
90118.4
89810
89689.2
89802.8
90267.4
90987.7
91322.7
91497
91952.2
92502.9
93169.9
93916.1
94844.1
95320.5
96010.2
96622.7
97213.4
97751.6
98260.2
98884.3
99905.4
101916
104340
105589
108102
110771
113147
113327
113944
114156
90577.1
90795.7
90644.3
90609
90720.1
91272
91673.4
91842.3
92053.2
92533.2
93149.6
93894.5
94696.1
95103.1
95560.2
95975.9
96422
96825.9
97306.3
97990.9
99135.6
101390
104078
105302
107841
110740
113191
113476
114172
114885
91336.8
91674.4
91563.8
91412.9
91336.5
91452.9
91836.3
92141.9
92335.5
92581.6
93166
93865.2
94426.3
94774.7
95023
95233
95511.4
95814.8
96263
96975.8
98179.4
100575
103547
104822
107407
110328
113041
113516
114241
115239
92650.8
92723.8
92558.1
92298.7
92173.2
92029.2
92090.5
92424.4
92673
93014.4
93248
93851.7
94188.5
94383.1
94449.8
94447.2
94507.5
94699.4
95137.9
95834.5
97053.6
99476.9
102709
104107
106836
109690
112491
113325
114065
115346
94202.5
93962
93575.1
93238.5
93086.7
92768.3
92720.4
92754.5
93028.1
93445
93718.9
93882.4
93952
93911.6
93804.5
93562.8
93561.6
93649.7
93918.1
94521.7
95728.6
98091.8
101607
103205
106070
108767
111653
112760
113576
115361
95924.2
95686.7
94934.1
94363.8
93998.3
93578.4
93498.3
93569.5
93722.7
93892.4
93929.2
93892.7
93805.5
93565.5
93140.1
92680.9
92528.7
92587.2
92786
93269.4
94309.7
96416.9
100322
102290
104866
107528
110540
111671
112665
114767
98772.8
98394
96425
95616.7
94931.5
94419.9
94325.2
94341.3
94300.3
94226.9
94033
93893.3
93622.4
93086.6
92402.5
91919.7
91519.2
91553.1
91698.7
92089.4
92982.5
94853.7
98638.5
101075
103446
106028
109030
110368
111589
113997
99972.7
99260.9
97782.7
96862.2
96068.8
95383.1
94902.6
94704.1
94585
94388.7
94073.4
93824.8
93322.3
92563.4
91807.1
91181.7
90538.3
90550.1
90657.9
90986.9
91755.5
93394.3
96763.6
99563.2
101869
104291
107137
108882
110161
112799
100655
99900.8
98669
97711.5
96734
95912.4
95189.1
94906.6
94715.8
94453.7
94083.1
93626.6
92881.7
92056.6
91194.8
90469.2
89604.5
89566.8
89643
89898.3
90546.3
91987.7
94987
97823.4
100188
102301
105219
107127
108374
111343
100971
100210
99225.3
98209.6
97166.3
96214.4
95394.4
94997.1
94765.5
94470.7
94072.5
93320.4
92404
91467.2
90569
89751.2
88739.8
88550.2
88613.1
88824.7
89389.7
90662.3
93321.5
95960.6
98364.8
100303
103070
104857
106323
109097
101098
100381
99566.8
98526.7
97399.5
96381.2
95670.8
95028.6
94776.3
94458.8
93844
92978.5
91850.6
90827.4
89914.5
89008.5
87893.2
87513
87565.4
87738.6
88219
89356.9
91779.1
94093.6
96437
98225
100757
102566
104208
107064
101522
100831
100068
98954.2
97872.8
96810.1
95890.7
95034.1
94728
94193.6
93518.1
92569.8
91232.4
90135.5
89218.5
88225.2
87020.9
86474
86507.6
86641.3
87048.1
88060.3
90239.3
92263.4
94455.3
96104.3
98535.3
100198
101572
104045
101900
101553
100456
99376.7
98114
97031.2
96057.3
94958
94097.5
93523.9
92902.7
91883.3
90443.4
89330.9
88444.8
87401.5
86096.6
85428.8
85445.6
85539.4
85879.2
86765.9
88693.2
90469.9
92451.7
94027.8
95852.6
97859.6
99047.7
101510
102040
101640
100729
99632.1
98295.4
97165
96135.5
94923.7
93589.8
92718.7
92013.2
90934.7
89461
88393.6
87584.1
86559.9
85192.8
84342.2
84342.7
84403.4
84694.4
85492.9
87242.8
88731.8
90522.9
92012.9
93807.1
95341.1
96010.1
97442.8
102253
101789
101545
100126
98564.7
97386.1
96245.6
94913.6
93335.2
92027.2
91042.7
89850.1
88360.3
87361.1
86671.5
85731.6
84296.8
83264.4
83232.7
83284.2
83543.4
84274.2
85860.8
87088.4
88678
90215.3
91761.2
93342
93378.2
94962.6
103299
102745
102181
101080
99542.8
98012.2
96538.7
94950.3
93205.6
91508.5
90201.3
88830.3
87258.5
86291.6
85734
84902.5
83384
82281.8
82184
82234.5
82470.6
83108.5
84486.5
85581.8
87110.8
88345.8
90265
91168.7
89928.4
86181.1
321634
324562
327566
329954
332332
334549
336725
338892
341017
343115
345181
347220
349210
351123
352939
354643
356196
357592
358811
359851
360773
361604
362016
362201
362274
362295
362281
362089
361717
361166
360426
359490
358352
357008
355450
353672
351671
349441
346972
344252
341295
338102
334626
331065
327004
322782
318377
313818
309099
304254
299233
294129
288922
283641
278304
272888
267428
261914
256357
250761
245128
239464
233774
228066
222349
216636
210944
205286
199676
194153
188741
183433
178268
173262
168433
163792
159348
155112
151106
147335
143836
140549
137498
134707
131898
129212
127061
125336
123561
121758
120077
118536
117046
115593
114170
112780
111428
110114
108846
107647
106512
105431
104430
103479
102670
102168
101889
101607
101490
101450
101453
101472
101528
101648
101884
102363
103021
103448
103510
103675
103757
103840
104016
103984
103781
323691
325169
327877
330351
332714
334971
337161
339305
341399
343453
345463
347425
349322
351132
352830
354389
355795
357017
358054
359024
359932
360383
360579
360647
360662
360612
360403
360029
359479
358747
357824
356706
355390
353870
352143
350202
348042
345658
343044
340195
337107
333788
330252
326500
322461
318251
313857
309305
304626
299934
294769
289720
284593
279407
274183
268883
263530
258117
252665
247183
241674
236142
230592
225034
219473
213925
208400
202914
197497
192144
186885
181756
176797
172006
167349
162838
158529
154455
150603
146982
143593
140396
137411
134640
132018
129608
127456
125485
123671
121940
120305
118764
117266
115785
114334
112925
111559
110234
108970
107762
106626
105571
104576
103679
102877
102283
101962
101707
101687
101673
101651
101650
101658
101697
101795
102008
102431
102984
103333
103364
103374
103387
103460
103424
103153
324588
324931
327433
329928
332296
334576
336792
338954
341069
343141
345161
347118
348995
350764
352400
353880
355181
356299
357274
358188
358879
359216
359361
359409
359418
359264
358954
358487
357845
357017
355998
354785
353376
351768
349955
347932
345690
343226
340536
337617
334464
331086
327496
323695
319653
315425
311024
306474
301800
297032
292145
287157
282088
276988
271897
266221
261032
255727
250399
245059
239681
234260
228809
223345
217866
212412
206983
201598
196272
191030
185884
180864
175924
171106
166544
162230
158065
154042
150208
146594
143222
140085
137174
134472
131949
129591
127443
125483
123660
121931
120293
118754
117249
115722
114279
112936
111631
110353
109122
107941
106822
105761
104759
103847
103029
102374
101934
101626
101558
101508
101485
101488
101505
101548
101639
101811
102092
102527
102608
102619
102627
102634
102602
102445
102370
324568
324522
326817
329264
331619
333924
336189
338413
340595
342730
344797
346786
348673
350429
352026
353446
354679
355743
356698
357549
358112
358383
358500
358539
358546
358360
358007
357489
356788
355897
354812
353531
352055
350379
348499
346406
344093
341555
338790
335800
332582
329142
325492
321635
317569
313316
308895
304328
299635
294833
289919
284920
279848
274724
269557
264327
259074
253812
248569
243108
237621
232303
226946
221580
216186
210794
205397
200030
194714
189497
184396
179427
174601
169940
165355
160921
156816
153024
149418
145977
142708
139636
136761
134074
131592
129295
127173
125221
123411
121712
120098
118549
117032
115544
114118
112742
111417
110116
108866
107679
106555
105490
104504
103591
102776
102096
101597
101243
101073
100945
100858
100857
100860
100869
100889
100940
101065
101298
101308
101338
101414
101521
101757
101742
101566
323969
323906
326015
328502
330873
333218
335539
337827
340072
342260
344370
346379
348261
349987
351536
352898
354082
355116
356034
356843
357344
357589
357699
357738
357745
357569
357195
356642
355896
354953
353811
352474
350940
349206
347266
345110
342730
340124
337294
334243
330979
327500
323812
319927
315844
311572
307132
302550
297843
293026
288105
283091
277991
272825
267610
262366
257124
251896
246685
241463
236206
230920
225627
220367
214467
209167
203828
198530
193291
188132
183055
178098
173277
168640
164197
159947
155777
151746
148006
144660
141564
138660
135946
133440
131103
128905
126843
124919
123105
121363
119707
118133
116628
115177
113773
112405
111080
109784
108535
107328
106180
105074
103951
102970
102199
101520
100948
100494
100187
99965.7
99808.8
99705.9
99670.5
99632.5
99629.3
99639.2
99684.8
99796.6
99838
99913
100056
100235
100279
100242
100031
322995
322931
325198
327746
330161
332559
334936
337276
339564
341780
343898
345891
347733
349401
350885
352187
353331
354346
355247
356032
356495
356715
356806
356836
356839
356654
356256
355663
354864
353861
352658
351259
349660
347862
345860
343638
341192
338520
335632
332536
329237
325741
322035
318129
314031
309738
305281
300683
295959
291120
286164
281094
275925
270694
265435
260183
254972
249800
244638
239465
234265
229033
223760
218450
213094
207707
202349
197085
191363
186208
181205
176344
171621
167058
162645
158421
154422
150643
147030
143504
140190
137353
134778
132381
130134
128041
126088
124253
122524
120898
119336
117802
116302
114831
113373
111934
110546
109213
107930
106698
105513
104378
103289
102287
101400
100608
99946.8
99419.3
99014.7
98691.5
98438
98250.8
98114.5
98045.7
97951
97951.8
97966.9
98014.6
98117.3
98323.7
98420.3
98417.8
98424.8
98420.8
98312.1
321803
321748
324387
327003
329484
331940
334361
336729
339027
341229
343311
345244
347009
348592
349996
351232
352329
353305
354161
354904
355385
355614
355708
355731
355730
355449
354962
354290
353419
352352
351087
349629
347956
346092
344036
341754
339246
336513
333569
330431
327080
323525
319773
315807
311656
307330
302870
298289
293583
288747
283758
278609
273334
268014
262685
257403
252234
247157
242072
236991
231878
226724
221499
216206
210860
205500
200152
194859
189643
184495
179490
174698
169507
165067
160792
156695
152775
149061
145579
142354
139399
136447
133711
131249
129133
127193
125351
123575
121860
120209
118622
117103
115621
114172
112769
111400
110040
108680
107332
105998
104714