/*--------------------------------*- C++ -*----------------------------------*\
| =========                 |                                                 |
| \\      /  F ield         | OpenFOAM: The Open Source CFD Toolbox           |
|  \\    /   O peration     | Version:  2112                                  |
|   \\  /    A nd           | Website:  www.openfoam.com                      |
|    \\/     M anipulation  |                                                 |
\*---------------------------------------------------------------------------*/
FoamFile
{
    version     2.0;
    format      ascii;
    arch        "LSB;label=32;scalar=64";
    class       volScalarField;
    location    "0.00548";
    object      nut;
}
// * * * * * * * * * * * * * * * * * * * * * * * * * * * * * * * * * * * * * //

dimensions      [0 2 -1 0 0 0 0];

internalField   nonuniform List<scalar> 
13875
(
0.0511678
0.0366254
0.0343663
0.0343289
0.0342976
0.0343343
0.034288
0.034278
0.0343117
0.0343062
0.0342811
0.0342898
0.0343214
0.0343427
0.0343288
0.034295
0.0342664
0.0342911
0.0343043
0.0343291
0.0343046
0.0343331
0.0343831
0.0365704
0.0514254
0.0532621
0.0341199
0.0322228
0.0321079
0.0320605
0.0320826
0.0320304
0.0320227
0.0320605
0.0320621
0.0320295
0.0320428
0.0320538
0.0320736
0.0320585
0.0320479
0.0320024
0.0320391
0.0320487
0.0320791
0.032065
0.0321012
0.032229
0.0340507
0.0536397
0.056457
0.0335619
0.0318035
0.0315955
0.0315667
0.0315758
0.0314636
0.0314403
0.0314737
0.0314743
0.0314412
0.0314612
0.0315313
0.031557
0.0315327
0.0314668
0.0314086
0.0314519
0.0314819
0.0315722
0.0315665
0.031579
0.0317948
0.0334906
0.0566015
0.0590704
0.033233
0.03149
0.0312804
0.0312587
0.0312614
0.0311374
0.0311136
0.0311366
0.0311246
0.0310924
0.0311145
0.0312154
0.0312412
0.0312164
0.0311209
0.0310754
0.0311069
0.0311503
0.0312578
0.0312572
0.0312614
0.0314848
0.0331676
0.0591511
0.0611256
0.0330043
0.0312468
0.031007
0.0309816
0.0309778
0.0308503
0.0308286
0.0308485
0.030833
0.0308045
0.0308248
0.0309273
0.030956
0.030928
0.0308316
0.0307891
0.0308176
0.0308629
0.0309737
0.0309788
0.0309889
0.0312303
0.0329202
0.0612676
0.0628184
0.0328484
0.0310897
0.0307752
0.0307491
0.030728
0.0305908
0.030568
0.0305853
0.0305681
0.0305426
0.0305611
0.0306655
0.0306964
0.0306661
0.0305671
0.030529
0.0305553
0.0306028
0.0307239
0.0307458
0.0307602
0.0310587
0.0328251
0.0629791
0.064827
0.0330733
0.0311044
0.0306362
0.0305663
0.0305214
0.0303662
0.030337
0.030346
0.030329
0.0303061
0.0303233
0.0304306
0.0304605
0.0304277
0.0303269
0.0302965
0.0303222
0.0303795
0.0305164
0.0305632
0.0306326
0.0311139
0.0330731
0.0648695
0.0670939
0.0339362
0.031425
0.0306518
0.0304832
0.0303703
0.0301857
0.030137
0.0301371
0.0301199
0.0300998
0.0301112
0.0302234
0.0302549
0.0302193
0.0301136
0.030094
0.0301229
0.0301934
0.0303614
0.0304696
0.0306287
0.0313924
0.0338967
0.0673559
0.0736456
0.0362962
0.0320426
0.0308502
0.0304778
0.0302825
0.0300547
0.0299809
0.0299658
0.029946
0.0299328
0.0299392
0.0300558
0.0300895
0.030052
0.0299425
0.0299306
0.0299623
0.0300493
0.0302642
0.0304562
0.0308028
0.0319373
0.0360028
0.0741879
0.0828958
0.0384659
0.0327327
0.0311888
0.030589
0.0302552
0.0299938
0.0299038
0.029873
0.0298481
0.0298398
0.0298441
0.0299592
0.029995
0.0299587
0.0298591
0.0298455
0.0298832
0.029976
0.0302284
0.0305556
0.0310919
0.0326225
0.0381009
0.0835244
0.0907204
0.0441459
0.0346564
0.032016
0.0308564
0.0303807
0.0300778
0.02994
0.0298912
0.0298621
0.0298517
0.0298546
0.0299625
0.0300002
0.029974
0.0298972
0.0298808
0.0299267
0.0300516
0.0303366
0.0308145
0.0318975
0.0343747
0.0432753
0.0893426
0.0950633
0.0545474
0.0403725
0.0334605
0.0319212
0.0308989
0.0303894
0.030192
0.0301033
0.0300635
0.0300468
0.0300525
0.0301441
0.0301854
0.0301738
0.0301237
0.0301146
0.0301898
0.0303549
0.0308666
0.0318112
0.0332128
0.0398295
0.0533393
0.0942471
0.0866175
0.0689714
0.0514384
0.0417772
0.0344514
0.0320324
0.0313959
0.0309228
0.0307427
0.0306538
0.0306151
0.0306135
0.0306837
0.0307289
0.0307392
0.0307321
0.0307838
0.0309589
0.0314096
0.0321331
0.0348315
0.0415745
0.0507673
0.0687205
0.0866088
0.0795952
0.0660804
0.0581184
0.0657912
0.0420343
0.0374564
0.0338776
0.0327957
0.0323473
0.0322333
0.0322006
0.0322028
0.0322663
0.0323127
0.0323292
0.0323278
0.0324081
0.0328249
0.0342043
0.0382529
0.0432353
0.0656121
0.057782
0.066118
0.0815977
0.0753644
0.0645205
0.0567359
0.0609526
0.0561352
0.0547285
0.0451673
0.0398737
0.037984
0.036799
0.0364276
0.0362939
0.0363298
0.0364042
0.0365152
0.0368016
0.0377525
0.0397944
0.0452995
0.0545916
0.0563168
0.0613254
0.05657
0.0641673
0.0746849
0.0672925
0.0620569
0.0547266
0.0581272
0.05665
0.0579759
0.0557816
0.0533553
0.0535625
0.0502556
0.0487795
0.0481229
0.0480313
0.0481635
0.0485144
0.049452
0.053144
0.0543573
0.0556013
0.0583173
0.0565413
0.0586008
0.0543764
0.0614397
0.0665424
0.0627841
0.0588182
0.0533781
0.0567436
0.0585761
0.0630487
0.0718728
0.0843262
0.0796979
0.0721707
0.072078
0.0732113
0.0737753
0.0737366
0.0730364
0.071381
0.0768603
0.0854064
0.0743082
0.0638218
0.0590693
0.0574142
0.0527418
0.0578824
0.0626985
0.0574858
0.05551
0.0551038
0.0599566
0.0631219
0.0666017
0.077613
0.0918095
0.0781954
0.0686113
0.0674651
0.06826
0.069166
0.0689182
0.0680996
0.0684331
0.0760458
0.0886268
0.0783921
0.0676771
0.064801
0.0617126
0.0553435
0.0549284
0.0571923
0.0516434
0.0554893
0.059304
0.0673147
0.0707469
0.0665931
0.0712991
0.0822749
0.0782225
0.0705455
0.0672051
0.066456
0.0667975
0.0670235
0.0672672
0.0692429
0.0757164
0.0807133
0.0719421
0.0669102
0.0726581
0.0698441
0.0602896
0.0560797
0.0523579
0.0496965
0.0577793
0.06466
0.0711313
0.0706817
0.0650103
0.066129
0.0748843
0.0767681
0.0718395
0.0671572
0.0646842
0.0643069
0.0652713
0.0671146
0.0702987
0.0743813
0.0735958
0.066405
0.0655662
0.0720124
0.0724253
0.0659724
0.0590257
0.0492414
0.059335
0.0774579
0.0711746
0.0663823
0.0662568
0.0620414
0.0624949
0.0702877
0.0747887
0.071616
0.066199
0.0625681
0.0617579
0.0633824
0.0663298
0.0700223
0.072338
0.0690535
0.0627307
0.0628456
0.0675631
0.0676449
0.0734395
0.0787372
0.0563581
0.112466
0.116181
0.0785642
0.0622395
0.0623496
0.0591727
0.0598572
0.0671266
0.0726349
0.0702599
0.0644981
0.0602178
0.059068
0.0610902
0.0646137
0.0685295
0.0701558
0.0660729
0.060129
0.0599696
0.0634396
0.0634319
0.0811469
0.121513
0.108748
0.133782
0.109811
0.0755697
0.0594133
0.058987
0.0567795
0.0576598
0.0646481
0.0704625
0.0683183
0.0623849
0.0577819
0.056369
0.0585212
0.0623346
0.0664416
0.0679979
0.0636902
0.0578845
0.0575027
0.0597751
0.060385
0.0772559
0.124098
0.138613
0.143806
0.100909
0.0700354
0.0572417
0.0561807
0.0547513
0.0557897
0.0624547
0.0683228
0.0659715
0.059844
0.0552161
0.0537997
0.0560176
0.0599215
0.0641306
0.065847
0.0614123
0.0558743
0.0555079
0.0569873
0.0581845
0.0716847
0.107268
0.149457
0.148737
0.0962432
0.066451
0.0557608
0.0540307
0.0529674
0.0542939
0.0605248
0.0660841
0.0635671
0.0574452
0.0528357
0.0514335
0.0536365
0.0575845
0.0618127
0.0636086
0.0593748
0.0542286
0.053712
0.0548642
0.0567067
0.0679286
0.102869
0.154188
0.153921
0.0951756
0.0637819
0.0544865
0.0523478
0.0514842
0.0530965
0.0588562
0.0638036
0.0611441
0.0551912
0.0506642
0.0492717
0.0514085
0.0552593
0.0593417
0.0612165
0.0575789
0.0528975
0.0520849
0.0531074
0.0553726
0.0647259
0.0980056
0.159387
0.159106
0.0919482
0.0613387
0.0532689
0.0510337
0.050295
0.0522268
0.0574047
0.0614052
0.0585741
0.0529267
0.0486424
0.0473166
0.0494308
0.0531928
0.0571207
0.0590405
0.0559896
0.0517626
0.050736
0.0518319
0.0542734
0.0626894
0.0963155
0.163212
0.163401
0.0905904
0.0597731
0.0521841
0.0500171
0.0494109
0.0514209
0.0560303
0.0591718
0.0562528
0.0509282
0.0468448
0.0455544
0.0475998
0.0511935
0.054902
0.0568507
0.0545225
0.0508402
0.0496798
0.0507439
0.0531487
0.0612325
0.0957738
0.168314
0.169125
0.0904797
0.0587798
0.0513129
0.0492215
0.0488057
0.0507743
0.0547503
0.0570738
0.0541301
0.0491242
0.0452232
0.0439577
0.0459089
0.0492967
0.0527921
0.0547785
0.0531441
0.0500646
0.0488759
0.0498301
0.0521841
0.0600465
0.0946584
0.173222
0.17489
0.0901009
0.0581774
0.0505304
0.0485849
0.0484778
0.0502869
0.0534779
0.0549007
0.0519281
0.0473206
0.0437129
0.0425202
0.0444591
0.0477005
0.050981
0.0529444
0.051874
0.0493733
0.0483075
0.0490443
0.0513766
0.059689
0.0959152
0.177176
0.176925
0.0903174
0.0582951
0.0500893
0.0480666
0.0481039
0.0497721
0.0523055
0.0530266
0.0500874
0.0457876
0.0423741
0.0412166
0.0430824
0.046132
0.0492267
0.0512102
0.0506872
0.0487784
0.047792
0.0483456
0.0508072
0.0596013
0.0963743
0.18156
0.179408
0.0904437
0.0587297
0.0499868
0.0476977
0.047734
0.0492482
0.0511754
0.0513261
0.0484349
0.0444158
0.0411783
0.0400503
0.0418453
0.0447187
0.047633
0.0496155
0.0495541
0.0481736
0.0473079
0.0478549
0.0505659
0.0599154
0.0958515
0.183495
0.182116
0.0894266
0.0592248
0.0501752
0.0474564
0.0473989
0.0487238
0.050072
0.0496564
0.0468382
0.0430925
0.0400669
0.0389961
0.0407598
0.0435023
0.0462944
0.0482605
0.0485191
0.047561
0.0468128
0.0474254
0.0506147
0.0603707
0.0959025
0.184854
0.183495
0.0892397
0.0602426
0.0508584
0.0473981
0.047033
0.0481357
0.0490269
0.0481721
0.0454671
0.0419636
0.0390991
0.0380538
0.0397517
0.0423484
0.0449802
0.0469169
0.0475237
0.0469562
0.046408
0.0471914
0.0509931
0.0612119
0.0951647
0.186458
0.185116
0.0895391
0.0608877
0.0518095
0.0476169
0.0466722
0.0475071
0.0480351
0.0468762
0.0442688
0.0409453
0.0382197
0.037202
0.0388368
0.0413101
0.0438364
0.0457456
0.0466048
0.0463231
0.0459779
0.0472821
0.0518038
0.0619099
0.0942853
0.187094
0.186691
0.0888247
0.0606964
0.0529635
0.0481017
0.0464258
0.046888
0.0470005
0.0456028
0.0430914
0.0399736
0.0374162
0.0364426
0.0380521
0.0404223
0.0428288
0.0446885
0.0457426
0.0457265
0.045694
0.0476782
0.0529436
0.061895
0.094316
0.188216
0.187177
0.0891156
0.0605756
0.054589
0.048834
0.0463026
0.0462978
0.0460356
0.0445259
0.0421269
0.0391488
0.0367054
0.0357516
0.0373032
0.0395651
0.041899
0.0437065
0.0448819
0.0451916
0.0455551
0.0483468
0.0544208
0.0616361
0.093575
0.189222
0.187957
0.0896526
0.0604383
0.05606
0.0500419
0.0463791
0.0458155
0.0451679
0.0435528
0.0412148
0.0384073
0.0360764
0.0351447
0.0366406
0.0387966
0.0410225
0.0428084
0.0441024
0.0447824
0.0456508
0.0495384
0.0560202
0.0614141
0.0937614
0.189365
0.188734
0.0897514
0.059838
0.0564158
0.0513039
0.0466753
0.0454216
0.0443534
0.0426486
0.0403736
0.0377011
0.0354889
0.0345926
0.0360616
0.0381443
0.0403027
0.0420412
0.0434219
0.0444451
0.045947
0.0509666
0.0568983
0.0611358
0.0942539
0.189793
0.18871
0.0904396
0.0590953
0.056387
0.0533284
0.0472477
0.0452784
0.04373
0.041897
0.0396275
0.0370997
0.0349882
0.0341065
0.0355232
0.0375085
0.0395803
0.0413437
0.0428451
0.0443468
0.0465481
0.0530297
0.0569354
0.0603495
0.0938319
0.190548
0.189005
0.0919763
0.0585014
0.0559523
0.0549428
0.0482431
0.0452861
0.0432943
0.0412773
0.0389971
0.0365674
0.0345307
0.0336606
0.0350273
0.0369374
0.0389504
0.0407592
0.0424391
0.0444517
0.0476493
0.0548527
0.0565895
0.0594801
0.0939225
0.190702
0.189471
0.0928442
0.0578065
0.0551808
0.0553831
0.0496211
0.0455082
0.043054
0.0407863
0.0384258
0.0360576
0.0341102
0.0332644
0.0346061
0.0364518
0.0384576
0.0403582
0.0422953
0.0447891
0.0493046
0.0555991
0.0559812
0.058977
0.0949174
0.191232
0.189454
0.0940042
0.0573744
0.0543135
0.054967
0.0519522
0.0462409
0.0430123
0.0405561
0.0380294
0.0356544
0.0337434
0.0328967
0.0341978
0.0360045
0.0380406
0.0401623
0.0423109
0.0455884
0.0517102
0.0552668
0.0550927
0.0583264
0.0953662
0.191348
0.189534
0.095813
0.0574473
0.053581
0.0542509
0.0533832
0.0476879
0.0431765
0.0404695
0.0377786
0.0353473
0.0334353
0.0325746
0.0338512
0.0356467
0.037754
0.0400986
0.0425541
0.047223
0.0533911
0.054551
0.0542585
0.0579083
0.096173
0.191152
0.189465
0.0969829
0.0571233
0.0528961
0.0533316
0.053135
0.0500095
0.0437703
0.0404699
0.0376627
0.0351296
0.0331958
0.0323035
0.0336012
0.035428
0.0376834
0.0401821
0.0433257
0.0499934
0.0531505
0.0536228
0.0536206
0.0580913
0.0974971
0.190942
0.189018
0.0982741
0.0574979
0.0523871
0.0523651
0.052516
0.0516886
0.0454419
0.0406893
0.0376448
0.0350847
0.0330741
0.0321317
0.033456
0.0353517
0.0376473
0.0403885
0.045092
0.051749
0.0526292
0.0526693
0.0530138
0.0580858
0.0981269
0.190672
0.188374
0.0999389
0.0582426
0.0520756
0.0515959
0.0517024
0.0515807
0.0481071
0.04152
0.0377248
0.0350892
0.0330702
0.0320606
0.0334307
0.0353337
0.0377071
0.0411909
0.0479658
0.0516665
0.0518955
0.0519217
0.0526095
0.0583623
0.0988718
0.189907
0.187063
0.100563
0.0585452
0.0517888
0.0509187
0.0508232
0.0510319
0.0500415
0.0434316
0.0380073
0.035109
0.0330989
0.0320942
0.0334579
0.035373
0.0380447
0.043342
0.0499435
0.0511517
0.05108
0.0513009
0.0524134
0.0590963
0.0999387
0.188344
0.18423
0.10086
0.0590051
0.0516067
0.0503753
0.0500402
0.0503463
0.0500404
0.0464865
0.0391797
0.0353051
0.0331579
0.0321362
0.0334955
0.0355582
0.039211
0.0464958
0.0499157
0.0504811
0.0503617
0.0507841
0.0521922
0.059354
0.0998111
0.185579
0.176957
0.0996534
0.0594866
0.0514641
0.0499623
0.0494359
0.0495635
0.0495193
0.0484448
0.0419183
0.0360389
0.0333523
0.0322743
0.0336593
0.0362748
0.0420601
0.0484121
0.0494467
0.049733
0.0497883
0.0503929
0.0519527
0.0594229
0.0980994
0.178433
0.119594
0.279686
0.383481
0.433711
0.452698
0.456914
0.463032
0.479721
0.510173
0.544535
0.575924
0.600503
0.617627
0.597509
0.574267
0.564036
0.555824
0.548174
0.543361
0.539957
0.536324
0.53156
0.525214
0.514817
0.497387
0.467327
0.421239
0.353418
0.254975
0.117951
0.11921
0.284321
0.376278
0.416289
0.429579
0.430453
0.43544
0.452476
0.484657
0.524154
0.560846
0.590557
0.611637
0.603183
0.57531
0.562649
0.554644
0.544239
0.538012
0.533985
0.529697
0.524178
0.51699
0.505873
0.487956
0.457447
0.410796
0.342945
0.246366
0.116124
0.129746
0.297177
0.37105
0.397908
0.406429
0.406059
0.409763
0.425866
0.456342
0.498321
0.538528
0.572621
0.597212
0.601791
0.573101
0.55791
0.549489
0.538432
0.53015
0.525509
0.520703
0.514541
0.506561
0.494569
0.475691
0.44472
0.397812
0.330649
0.237205
0.114386
0.138251
0.30484
0.361127
0.379155
0.384946
0.384522
0.387623
0.400379
0.427052
0.468312
0.511434
0.549801
0.580283
0.594443
0.570795
0.552907
0.543742
0.53248
0.521398
0.516017
0.510603
0.503726
0.495002
0.482082
0.462219
0.430831
0.383992
0.318035
0.228239
0.112602
0.142818
0.305892
0.352321
0.368512
0.374784
0.375191
0.375016
0.37977
0.398666
0.43549
0.479426
0.521044
0.557155
0.578623
0.565451
0.546256
0.537347
0.525187
0.512562
0.505309
0.499157
0.491648
0.482215
0.468346
0.447462
0.415732
0.369383
0.30528
0.219512
0.111145
0.147352
0.306442
0.35278
0.373601
0.38604
0.386438
0.378926
0.37114
0.377622
0.405008
0.446043
0.489894
0.530247
0.557553
0.556018
0.538676
0.530501
0.518153
0.503742
0.494078
0.486851
0.47878
0.468662
0.453843
0.432015
0.399991
0.354541
0.292476
0.210974
0.109692
0.152138
0.308743
0.369784
0.404636
0.430772
0.427652
0.408198
0.380849
0.368644
0.380574
0.413901
0.457504
0.500661
0.532763
0.541761
0.528479
0.522213
0.511344
0.494602
0.482523
0.473837
0.465429
0.454703
0.439132
0.416578
0.384084
0.339253
0.279156
0.201831
0.107635
0.157672
0.316285
0.412873
0.477254
0.525807
0.514463
0.476589
0.418261
0.377077
0.366352
0.386035
0.425761
0.47025
0.505809
0.523612
0.514024
0.512316
0.503838
0.486197
0.470854
0.460514
0.451727
0.440275
0.423975
0.400902
0.367884
0.32262
0.263745
0.191108
0.104807
0.163742
0.335639
0.496153
0.609168
0.660209
0.640851
0.590451
0.492151
0.40895
0.365946
0.365155
0.396383
0.439809
0.47749
0.500993
0.497312
0.501601
0.495088
0.477696
0.458603
0.446244
0.436343
0.424133
0.406892
0.382252
0.348309
0.304195
0.248686
0.181423
0.102372
0.170828
0.376116
0.628198
0.732273
0.747625
0.721613
0.677829
0.589877
0.46331
0.381522
0.353781
0.371249
0.410846
0.449774
0.476677
0.479303
0.486252
0.485531
0.468689
0.446754
0.430643
0.418859
0.40531
0.38685
0.362084
0.329556
0.288095
0.236309
0.173947
0.100564
0.179684
0.447654
0.753202
0.806794
0.783774
0.745653
0.719594
0.653944
0.524923
0.408236
0.352576
0.352057
0.384832
0.423176
0.451983
0.460702
0.468199
0.476984
0.460339
0.43464
0.414546
0.400963
0.38686
0.368421
0.344429
0.313266
0.273909
0.225245
0.167223
0.0989446
0.191166
0.554831
0.850511
0.851764
0.790139
0.733004
0.717975
0.684
0.569681
0.436788
0.358245
0.339089
0.362871
0.398747
0.42804
0.442082
0.449324
0.464186
0.455236
0.424073
0.399753
0.38395
0.36942
0.351191
0.327894
0.297998
0.260703
0.215062
0.161139
0.0974306
0.206228
0.686919
0.929011
0.880758
0.787724
0.71413
0.694515
0.687724
0.587371
0.457973
0.364198
0.330962
0.344841
0.376963
0.406257
0.424198
0.431499
0.447599
0.45492
0.417461
0.386236
0.368335
0.352877
0.334917
0.312267
0.283637
0.248373
0.205656
0.155464
0.0960325
0.22477
0.812424
0.992661
0.904494
0.785476
0.70011
0.668851
0.680185
0.59092
0.467557
0.365869
0.324328
0.330581
0.358432
0.387389
0.408081
0.415209
0.431366
0.447152
0.418571
0.375872
0.353799
0.337247
0.319517
0.297519
0.27016
0.236892
0.196964
0.15026
0.0947516
0.246023
0.921046
1.05078
0.922823
0.784395
0.691407
0.6509
0.664687
0.586137
0.462062
0.362232
0.317992
0.320033
0.34387
0.372102
0.394208
0.400995
0.41704
0.432482
0.429773
0.372001
0.340885
0.322971
0.304939
0.283619
0.257532
0.226212
0.188932
0.145546
0.0935853
0.268534
1.02017
1.10607
0.93762
0.783549
0.687467
0.636305
0.641278
0.577333
0.449783
0.354474
0.313632
0.313604
0.33365
0.360357
0.381632
0.389
0.405088
0.417916
0.429171
0.379969
0.331745
0.309678
0.291053
0.270537
0.245717
0.216282
0.181511
0.141261
0.0924813
0.292884
1.11592
1.15899
0.951585
0.786557
0.681503
0.6242
0.61247
0.560157
0.439009
0.349311
0.312565
0.310456
0.327216
0.352374
0.371348
0.379168
0.394601
0.40543
0.416163
0.402972
0.331392
0.298064
0.278411
0.258186
0.234649
0.207
0.174568
0.137181
0.091371
0.320153
1.21074
1.20915
0.967511
0.791715
0.679929
0.618631
0.589334
0.530631
0.434704
0.351697
0.314824
0.31091
0.32506
0.348667
0.363331
0.371581
0.385401
0.394858
0.402306
0.40453
0.348112
0.291245
0.266931
0.246377
0.224214
0.198276
0.168006
0.133248
0.0902199
0.348348
1.30224
1.25541
0.987908
0.803198
0.68705
0.621515
0.575999
0.508274
0.426223
0.35868
0.320547
0.316165
0.32778
0.347479
0.358294
0.366195
0.377615
0.385403
0.390349
0.392151
0.375909
0.29661
0.257549
0.235886
0.214238
0.190051
0.1618
0.129592
0.0890734
0.377578
1.39522
1.30082
1.01484
0.820796
0.703792
0.633456
0.574421
0.500688
0.419742
0.36519
0.335635
0.328558
0.33514
0.349109
0.357037
0.363178
0.371657
0.376705
0.379008
0.378589
0.372894
0.323067
0.254964
0.226824
0.205063
0.182229
0.156034
0.126337
0.0880271
0.420786
1.47436
1.34107
1.05116
0.851064
0.73114
0.656801
0.587767
0.509229
0.425361
0.377529
0.355129
0.344458
0.344367
0.352212
0.355633
0.363009
0.367607
0.368752
0.368171
0.365667
0.359455
0.341892
0.266178
0.221019
0.197572
0.175003
0.150561
0.123344
0.0870641
0.454267
1.55158
1.3861
1.10175
0.896429
0.772534
0.693167
0.619337
0.532467
0.442388
0.392444
0.369043
0.358755
0.353324
0.353754
0.354682
0.359702
0.363422
0.361857
0.358067
0.35328
0.345643
0.334577
0.294168
0.222423
0.191662
0.169318
0.145699
0.120305
0.0861141
0.489891
1.58086
1.42187
1.16727
0.96182
0.828857
0.742824
0.666296
0.574112
0.471838
0.407914
0.381139
0.371419
0.361794
0.355651
0.354408
0.355216
0.356483
0.355047
0.349369
0.342338
0.333629
0.322264
0.303321
0.23613
0.188733
0.164701
0.141965
0.117515
0.0850345
0.512927
1.59471
1.45919
1.255
1.05382
0.903921
0.80365
0.724213
0.633881
0.521759
0.433797
0.39645
0.381609
0.369551
0.358854
0.354404
0.35123
0.350122
0.347423
0.341764
0.333402
0.323522
0.311115
0.297081
0.261858
0.192795
0.161419
0.139021
0.115651
0.0843642
0.518739
1.4372
1.50162
1.37803
1.17691
1.0027
0.881562
0.792277
0.705113
0.593008
0.480346
0.417738
0.390194
0.377015
0.36326
0.355003
0.348607
0.345082
0.340561
0.334598
0.326288
0.315539
0.302551
0.288916
0.268124
0.209211
0.161201
0.136699
0.114344
0.0839376
0.11822
0.256426
0.355113
0.422718
0.468232
0.497622
0.514795
0.525083
0.531465
0.53608
0.539417
0.542821
0.547658
0.555594
0.564182
0.575976
0.601477
0.614905
0.596164
0.56979
0.537019
0.501761
0.47177
0.45548
0.450012
0.44618
0.427626
0.378732
0.277238
0.120176
0.116386
0.247801
0.344641
0.41224
0.458276
0.48812
0.505911
0.516933
0.524192
0.529585
0.533485
0.537594
0.544212
0.554492
0.562945
0.577687
0.607038
0.608939
0.585324
0.553803
0.515718
0.475765
0.444619
0.428273
0.423778
0.423189
0.409966
0.371221
0.281779
0.119674
0.114645
0.238592
0.332317
0.399231
0.445526
0.475883
0.494695
0.506575
0.514596
0.520732
0.525076
0.529827
0.538552
0.549445
0.558459
0.575672
0.603329
0.593528
0.566653
0.531076
0.489472
0.447821
0.418813
0.403721
0.400605
0.401199
0.39211
0.366281
0.29461
0.130116
0.112843
0.229552
0.319651
0.385398
0.431649
0.462483
0.482293
0.495098
0.503861
0.510731
0.515694
0.521208
0.532723
0.543894
0.553838
0.573652
0.5931
0.575728
0.54331
0.503523
0.459568
0.419236
0.394699
0.383616
0.381144
0.381309
0.375482
0.357364
0.302104
0.138642
0.111353
0.220718
0.306802
0.370735
0.416562
0.447825
0.468614
0.482391
0.491871
0.499367
0.505147
0.512767
0.525635
0.537763
0.547409
0.567987
0.57567
0.551802
0.514151
0.471172
0.427319
0.3923
0.376388
0.373681
0.374597
0.374473
0.367194
0.350197
0.303281
0.143193
0.10988
0.212103
0.29392
0.355813
0.400832
0.432468
0.45416
0.468914
0.479106
0.487147
0.494137
0.504148
0.518944
0.531041
0.540053
0.557597
0.553811
0.52438
0.482862
0.438121
0.39827
0.373826
0.370896
0.381465
0.390514
0.389681
0.375496
0.353299
0.304477
0.147722
0.1078
0.202902
0.280573
0.340472
0.384981
0.417079
0.439462
0.454945
0.465766
0.474202
0.482814
0.495335
0.51236
0.522745
0.529241
0.542856
0.528649
0.494664
0.450531
0.40686
0.376214
0.36843
0.385602
0.417336
0.437945
0.44067
0.411411
0.37368
0.308037
0.152798
0.104946
0.192106
0.265119
0.323994
0.368836
0.401389
0.424315
0.440499
0.452001
0.46094
0.47138
0.487324
0.50488
0.51292
0.514959
0.522701
0.501529
0.464203
0.419137
0.380648
0.365288
0.382078
0.430473
0.495713
0.534657
0.544732
0.491206
0.421453
0.317572
0.158269
0.102516
0.1824
0.250023
0.305522
0.349388
0.38301
0.407213
0.424343
0.436634
0.446749
0.459514
0.479087
0.495988
0.501851
0.498475
0.499417
0.47345
0.434068
0.390626
0.362365
0.369304
0.420798
0.5145
0.613114
0.661201
0.679838
0.629376
0.510195
0.340033
0.164624
0.100684
0.174836
0.237577
0.289469
0.330783
0.363126
0.387687
0.405891
0.419331
0.431282
0.447955
0.470174
0.486234
0.485878
0.480416
0.474716
0.445951
0.405665
0.367016
0.354288
0.389823
0.481675
0.613841
0.696214
0.736138
0.763126
0.748892
0.644795
0.384736
0.172023
0.0990313
0.16799
0.22637
0.275178
0.314454
0.345482
0.369332
0.387587
0.401625
0.415483
0.436144
0.461902
0.477271
0.467699
0.461555
0.449692
0.419519
0.380399
0.349788
0.356821
0.420989
0.546808
0.673621
0.731984
0.755637
0.797521
0.822453
0.768224
0.46157
0.181079
0.0974911
0.16181
0.216053
0.26186
0.299124
0.328924
0.352112
0.370208
0.384757
0.400946
0.425975
0.456579
0.463184
0.448745
0.442661
0.425884
0.395474
0.359414
0.338975
0.365509
0.452476
0.588836
0.698332
0.724861
0.74256
0.804348
0.868948
0.866384
0.573124
0.193024
0.0960726
0.156062
0.206543
0.249435
0.284711
0.313281
0.33585
0.353698
0.36927
0.387694
0.419652
0.455314
0.446364
0.430865
0.424603
0.404307
0.374198
0.342511
0.33275
0.373081
0.475472
0.605348
0.700439
0.701799
0.724823
0.80328
0.90068
0.946518
0.70631
0.208308
0.0947752
0.150797
0.197772
0.237877
0.271187
0.298519
0.320459
0.338159
0.354851
0.377697
0.420596
0.445621
0.43009
0.414557
0.408525
0.385705
0.356177
0.329286
0.327413
0.37578
0.484151
0.609225
0.691337
0.677594
0.711638
0.801982
0.926986
1.01429
0.830174
0.226943
0.0936001
0.146026
0.189664
0.227125
0.258515
0.284606
0.305886
0.323943
0.342089
0.374097
0.430374
0.430645
0.415492
0.400294
0.393918
0.370538
0.342053
0.319418
0.321636
0.372333
0.478276
0.604893
0.673438
0.660028
0.703594
0.801334
0.946758
1.07531
0.938691
0.248061
0.092496
0.141699
0.182167
0.217122
0.246652
0.271502
0.292021
0.310701
0.333201
0.381931
0.427441
0.415974
0.40332
0.388048
0.381282
0.358875
0.332245
0.313414
0.317216
0.363675
0.465326
0.595392
0.648714
0.646578
0.700009
0.800552
0.96257
1.13375
1.03899
0.27043
0.0913824
0.137562
0.175151
0.207769
0.235527
0.259118
0.279414
0.299187
0.333112
0.403186
0.41404
0.403356
0.392657
0.377944
0.371099
0.350955
0.326054
0.310335
0.315863
0.357359
0.453972
0.574783
0.621415
0.634821
0.695313
0.804499
0.978158
1.19014
1.13667
0.294436
0.0902165
0.133501
0.168509
0.198967
0.225025
0.247281
0.267933
0.29258
0.349712
0.402617
0.399999
0.392685
0.383294
0.370183
0.36313
0.347103
0.324053
0.310882
0.317056
0.35878
0.447158
0.542671
0.600241
0.629931
0.694726
0.811453
0.996196
1.24328
1.2337
0.321438
0.0890465
0.129709
0.16225
0.190673
0.214941
0.236759
0.258627
0.298145
0.375094
0.389895
0.388055
0.383159
0.375442
0.364626
0.35861
0.346036
0.326186
0.315902
0.32225
0.364836
0.436188
0.520157
0.588028
0.633656
0.701667
0.823687
1.01842
1.29231
1.32771
0.34946
0.0879873
0.126394
0.156449
0.182779
0.205783
0.22767
0.256218
0.324107
0.370979
0.376397
0.376763
0.374402
0.369583
0.362052
0.356865
0.348197
0.333781
0.328059
0.336741
0.36952
0.428189
0.512702
0.587133
0.646292
0.718603
0.841525
1.0461
1.33997
1.42368
0.378292
0.0870242
0.123464
0.150941
0.175579
0.198258
0.221981
0.267609
0.340888
0.357575
0.363639
0.366047
0.366625
0.366385
0.362313
0.355305
0.351707
0.343791
0.344434
0.355691
0.380244
0.432447
0.520382
0.600341
0.669804
0.746178
0.871911
1.08267
1.38169
1.5051
0.42323
0.0860301
0.120405
0.146088
0.169887
0.192385
0.223771
0.295029
0.332932
0.343952
0.3514
0.356197
0.360256
0.363053
0.358766
0.354273
0.35382
0.353365
0.359825
0.370306
0.39557
0.450468
0.543842
0.631349
0.706253
0.78804
0.917992
1.13426
1.4284
1.58326
0.455974
0.0849184
0.117659
0.142306
0.165184
0.189604
0.238012
0.302432
0.320648
0.331995
0.340676
0.347938
0.354347
0.355644
0.354027
0.354016
0.35555
0.362215
0.372627
0.383418
0.412589
0.481794
0.586649
0.678566
0.756661
0.845479
0.984447
1.2006
1.46531
1.61525
0.490886
0.0842811
0.115702
0.139266
0.161844
0.194052
0.262731
0.295818
0.309787
0.322247
0.332132
0.340972
0.346416
0.348645
0.349988
0.354029
0.358886
0.370106
0.382435
0.399459
0.440783
0.533935
0.647435
0.737795
0.818951
0.922509
1.07823
1.2888
1.50103
1.62856
0.51346
0.0838589
0.11431
0.136914
0.161838
0.211402
0.267581
0.287692
0.301376
0.314233
0.325514
0.333866
0.339522
0.343649
0.347602
0.354883
0.363683
0.377483
0.391141
0.422049
0.490379
0.607405
0.71957
0.807257
0.898765
1.02524
1.20551
1.41365
1.54015
1.46641
0.518594
0.159854
0.15919
0.157555
0.156027
0.154426
0.152705
0.15087
0.148971
0.147
0.144941
0.142855
0.14075
0.138639
0.136547
0.134513
0.132539
0.13064
0.128812
0.127057
0.125415
0.123866
0.122418
0.12107
0.119808
0.118655
0.1176
0.116634
0.115744
0.114962
0.114309
0.113783
0.113395
0.113276
0.113733
0.114996
0.116948
0.119349
0.122467
0.126228
0.130596
0.135029
0.139106
0.143209
0.147326
0.151415
0.155421
0.159384
0.163387
0.168122
0.173898
0.178789
0.180702
0.180054
0.178154
0.174994
0.170937
0.165193
0.157831
0.150626
0.144884
0.140415
0.136926
0.134141
0.132108
0.130938
0.130177
0.129734
0.129528
0.129452
0.129482
0.129576
0.129738
0.129963
0.130234
0.130483
0.130674
0.130832
0.131016
0.131201
0.131322
0.131334
0.131213
0.13093
0.130514
0.130055
0.129625
0.129232
0.128852
0.128453
0.128011
0.127503
0.126909
0.126223
0.125462
0.124657
0.12385
0.123082
0.122368
0.121708
0.121108
0.120582
0.120201
0.120048
0.120192
0.120535
0.121075
0.121743
0.122451
0.123189
0.123941
0.124919
0.125457
0.125457
0.124222
0.119812
0.115177
0.109704
0.102231
0.0934423
0.0870279
0.0843345
0.0833566
0.0831546
0.0832684
0.0835679
0.254953
0.256189
0.254944
0.254523
0.25365
0.252453
0.250842
0.249218
0.246957
0.24419
0.241348
0.23847
0.235572
0.233806
0.231661
0.231035
0.228973
0.229076
0.227764
0.227581
0.228778
0.23
0.233526
0.237372
0.242807
0.249102
0.256474
0.264836
0.274391
0.285467
0.298315
0.313959
0.333475
0.353787
0.374789
0.395296
0.416312
0.437316
0.458097
0.477887
0.496713
0.513321
0.527691
0.540118
0.551074
0.560322
0.567068
0.571899
0.57572
0.577703
0.574229
0.567966
0.559909
0.54736
0.532103
0.514299
0.489735
0.459597
0.424403
0.394469
0.370274
0.351225
0.337115
0.325637
0.316173
0.308409
0.302093
0.297073
0.29318
0.290468
0.288605
0.287403
0.286937
0.287042
0.287089
0.286767
0.286168
0.285324
0.284098
0.282402
0.280283
0.277873
0.27524
0.272393
0.26931
0.266004
0.26254
0.259009
0.255479
0.251976
0.248486
0.244991
0.241543
0.238275
0.23533
0.232746
0.230638
0.229169
0.228057
0.227115
0.226364
0.225738
0.225225
0.224988
0.225166
0.225603
0.225993
0.225473
0.223324
0.219029
0.212831
0.205726
0.198035
0.190716
0.1843
0.178857
0.174285
0.170155
0.164069
0.151138
0.1307
0.118414
0.113609
0.112735
0.113274
0.292813
0.296431
0.297003
0.298762
0.300036
0.301183
0.30186
0.302608
0.302779
0.302534
0.302431
0.302101
0.302061
0.302552
0.303174
0.305132
0.306831
0.310665
0.314208
0.319284
0.326081
0.3338
0.344455
0.356739
0.372343
0.390812
0.41214
0.43531
0.459085
0.485541
0.516368
0.550155
0.585637
0.619589
0.651606
0.680892
0.707948
0.73319
0.756506
0.777376
0.796247
0.813255
0.827388
0.838892
0.848037
0.855129
0.860548
0.865381
0.864398
0.854155
0.84056
0.821702
0.798822
0.772926
0.750496
0.729334
0.696033
0.653773
0.608182
0.562574
0.522052
0.488142
0.461061
0.439301
0.421444
0.407739
0.396075
0.38657
0.379298
0.373483
0.368747
0.364701
0.36147
0.359173
0.357098
0.354965
0.352498
0.349459
0.346035
0.342455
0.338899
0.335406
0.332037
0.328551
0.324665
0.320347
0.315747
0.311059
0.306456
0.302107
0.298218
0.294821
0.291897
0.289435
0.287374
0.285622
0.283969
0.282221
0.280646
0.279417
0.278446
0.277473
0.275968
0.273284
0.269054
0.263096
0.255401
0.246616
0.237752
0.229309
0.221555
0.214895
0.209369
0.204652
0.200673
0.197542
0.194812
0.193342
0.192267
0.190379
0.185247
0.171781
0.1499
0.138955
0.136041
0.309299
0.314447
0.315924
0.319004
0.321649
0.324617
0.327345
0.330555
0.333782
0.33748
0.341941
0.346441
0.352081
0.358628
0.366296
0.376191
0.386564