/*--------------------------------*- C++ -*----------------------------------*\
| =========                 |                                                 |
| \\      /  F ield         | OpenFOAM: The Open Source CFD Toolbox           |
|  \\    /   O peration     | Version:  2112                                  |
|   \\  /    A nd           | Website:  www.openfoam.com                      |
|    \\/     M anipulation  |                                                 |
\*---------------------------------------------------------------------------*/
FoamFile
{
    version     2.0;
    format      ascii;
    arch        "LSB;label=32;scalar=64";
    class       volScalarField;
    location    "0.00665";
    object      nut;
}
// * * * * * * * * * * * * * * * * * * * * * * * * * * * * * * * * * * * * * //

dimensions      [0 2 -1 0 0 0 0];

internalField   nonuniform List<scalar> 
13875
(
0.0511676
0.0366254
0.0343665
0.0343304
0.0343021
0.034334
0.0342986
0.0342771
0.0342959
0.0342983
0.0342906
0.0342946
0.0343234
0.0343415
0.0343306
0.0342927
0.0342672
0.0342906
0.034303
0.0343264
0.034304
0.0343339
0.0343832
0.0365635
0.0514285
0.0532619
0.0341198
0.032223
0.0321078
0.0320665
0.0320868
0.0320455
0.0320238
0.0320375
0.0320343
0.0320244
0.032046
0.0320543
0.0320723
0.0320605
0.0320464
0.0320034
0.0320353
0.0320464
0.0320757
0.0320637
0.0321022
0.0322288
0.0340465
0.0536444
0.0564569
0.0335617
0.0318035
0.0315937
0.0315728
0.0315785
0.0314856
0.0314407
0.0314506
0.0314444
0.0314284
0.0314583
0.03153
0.0315557
0.0315348
0.0314642
0.0314081
0.0314458
0.0314784
0.0315675
0.0315645
0.03158
0.0317943
0.0334895
0.0566051
0.0590705
0.0332328
0.0314902
0.0312776
0.0312651
0.0312638
0.0311556
0.0310979
0.03111
0.0311103
0.0310852
0.0311076
0.0312134
0.0312398
0.0312185
0.0311165
0.0310732
0.0311029
0.0311468
0.0312538
0.0312553
0.0312623
0.0314842
0.0331684
0.0591528
0.0611257
0.0330041
0.031247
0.0310037
0.0309876
0.0309826
0.0308646
0.0308067
0.0308238
0.0308249
0.0307966
0.0308174
0.0309247
0.0309544
0.0309301
0.0308269
0.0307868
0.0308151
0.0308597
0.0309687
0.0309768
0.0309897
0.0312295
0.0329211
0.0612667
0.0628185
0.0328482
0.03109
0.0307719
0.0307551
0.0307352
0.0306021
0.0305449
0.0305637
0.0305644
0.0305335
0.0305526
0.0306623
0.0306946
0.0306679
0.0305623
0.0305265
0.0305536
0.0306001
0.0307201
0.0307438
0.0307611
0.0310582
0.0328251
0.0629736
0.0648271
0.0330731
0.0311045
0.0306329
0.0305711
0.0305293
0.0303721
0.0303115
0.0303294
0.0303284
0.0302965
0.0303137
0.0304263
0.0304584
0.0304287
0.0303218
0.0302937
0.0303208
0.0303765
0.0305125
0.0305604
0.0306331
0.0311132
0.0330721
0.0648619
0.0670939
0.0339365
0.0314253
0.0306497
0.0304875
0.0303783
0.0301871
0.0301126
0.0301249
0.0301205
0.0300891
0.0300998
0.0302171
0.0302519
0.0302192
0.0301079
0.0300901
0.0301211
0.0301904
0.030358
0.0304678
0.0306299
0.0313923
0.0338962
0.0673506
0.0736457
0.0362962
0.0320413
0.0308463
0.030477
0.0302853
0.0300425
0.0299527
0.0299606
0.0299504
0.0299205
0.0299242
0.0300463
0.0300842
0.0300499
0.0299353
0.0299244
0.0299593
0.0300459
0.0302614
0.0304517
0.0308027
0.0319362
0.0360015
0.0741863
0.0828985
0.0384708
0.0327353
0.0311881
0.0305836
0.0302434
0.0299674
0.0298729
0.0298681
0.0298494
0.0298237
0.0298236
0.029944
0.0299854
0.0299524
0.0298482
0.0298352
0.0298757
0.0299688
0.0302236
0.0305527
0.0310842
0.0326233
0.0381039
0.0835401
0.0907137
0.0441371
0.0346534
0.0320016
0.0308238
0.0303555
0.0300399
0.0299133
0.0298817
0.029851
0.0298267
0.0298241
0.0299372
0.0299811
0.0299579
0.0298778
0.0298619
0.0299093
0.0300414
0.0303102
0.0307995
0.0318865
0.0343678
0.0432656
0.0893453
0.0950384
0.0545394
0.0403784
0.033455
0.0318825
0.0308455
0.0303426
0.0301528
0.0300767
0.0300298
0.0300035
0.030002
0.0300974
0.0301449
0.0301373
0.0300868
0.0300777
0.0301502
0.030333
0.0308476
0.031809
0.0332195
0.0398317
0.0533466
0.0942618
0.0865759
0.068771
0.0516409
0.0417724
0.0343929
0.0319471
0.0313157
0.0308533
0.0306682
0.0305743
0.0305301
0.0305231
0.0305943
0.0306433
0.0306596
0.0306553
0.0307065
0.0308973
0.0313586
0.0320164
0.0347748
0.0415569
0.0508493
0.068766
0.0866077
0.0795665
0.0659417
0.058192
0.0659475
0.041851
0.0372987
0.0337198
0.032558
0.032139
0.0320477
0.0320107
0.0320063
0.0320684
0.0321128
0.0321425
0.0321658
0.0322104
0.0326069
0.0341265
0.0383199
0.0433826
0.0657011
0.0578589
0.0661717
0.081611
0.0753016
0.0643031
0.0566559
0.0608469
0.0561593
0.0543714
0.0445713
0.0391256
0.0370095
0.0360893
0.0357232
0.0355988
0.0356289
0.0356866
0.0357962
0.0361044
0.0369224
0.0390806
0.0452529
0.0555179
0.0558698
0.0612991
0.056671
0.0641875
0.0746784
0.0671707
0.0618873
0.0544409
0.0575727
0.0561817
0.0575107
0.0550579
0.0532612
0.0515361
0.0485834
0.0477033
0.0473138
0.0471992
0.0472997
0.0475186
0.048131
0.051051
0.0542427
0.0556956
0.0580037
0.0557662
0.0581853
0.0544286
0.0615512
0.0665206
0.0624759
0.0583624
0.0527134
0.055399
0.0573031
0.0620532
0.0691917
0.0758918
0.0729021
0.070761
0.0732159
0.0746312
0.0756248
0.0752516
0.0737838
0.0726195
0.0719093
0.0758802
0.0703612
0.0623466
0.057096
0.0556859
0.0522262
0.0577717
0.0625656
0.0570867
0.0548202
0.0533717
0.0570602
0.0605652
0.0643491
0.0731664
0.083318
0.0750284
0.0689633
0.0691225
0.0695216
0.0704101
0.0700143
0.0696653
0.0712378
0.0740717
0.0803513
0.0734262
0.065499
0.0617678
0.0581847
0.0534145
0.0544632
0.0569379
0.0513378
0.0541768
0.0561642
0.0629692
0.06792
0.0651954
0.0687455
0.0777466
0.0747299
0.0696431
0.0686973
0.0683452
0.068733
0.0691032
0.0694487
0.0704527
0.0729834
0.0756444
0.0690354
0.0664316
0.0709593
0.0651711
0.0571283
0.0546602
0.0521383
0.0492649
0.0569691
0.0606015
0.067313
0.0694193
0.0645366
0.0647052
0.0714445
0.0728599
0.0702351
0.0685858
0.0668722
0.0665289
0.0678669
0.0693857
0.0702339
0.0707911
0.069657
0.0649956
0.0660243
0.0714594
0.0681319
0.0617693
0.0575555
0.0487659
0.0752491
0.0847768
0.0744977
0.0655185
0.0653687
0.0616289
0.061368
0.0672723
0.0707606
0.0695937
0.0674223
0.0647515
0.0640186
0.0660561
0.0683427
0.0691869
0.0685285
0.0656977
0.061736
0.0631642
0.0671837
0.0659169
0.0757909
0.083845
0.0736821
0.125241
0.138558
0.083884
0.0616678
0.0612023
0.0586688
0.0587387
0.0642213
0.068534
0.0680978
0.0655802
0.0623209
0.0613207
0.063724
0.0665302
0.0674803
0.0662818
0.0629184
0.0590689
0.0600542
0.062742
0.0625152
0.0872277
0.138001
0.125361
0.143194
0.11593
0.0785613
0.0587801
0.057855
0.0562119
0.0564451
0.0617482
0.066303
0.066075
0.0633552
0.0598213
0.0585864
0.061128
0.0642563
0.0653846
0.0640866
0.060636
0.0566633
0.0573916
0.0590591
0.0596601
0.0800694
0.116762
0.143916
0.151394
0.116363
0.07227
0.0567045
0.0551394
0.0540371
0.0544261
0.0594802
0.0640812
0.0638247
0.0608931
0.0572295
0.055992
0.0585742
0.0618858
0.0632166
0.0619189
0.0583867
0.0546198
0.0551257
0.0562875
0.0577442
0.0737048
0.118938
0.15066
0.15599
0.116682
0.068963
0.055339
0.0531313
0.0521566
0.0527913
0.0574539
0.061827
0.061499
0.0585248
0.0548353
0.0535934
0.0561603
0.0595614
0.0609774
0.0597781
0.0563725
0.05288
0.0531129
0.0542855
0.056481
0.0706535
0.121126
0.155972
0.161991
0.120574
0.0668219
0.0540158
0.0515612
0.0505559
0.0514775
0.0556731
0.0596504
0.0592218
0.0562835
0.0526385
0.0513969
0.0538696
0.0572057
0.058696
0.0576992
0.0545923
0.0514092
0.0512464
0.0525872
0.0550814
0.0679093
0.122187
0.163917
0.169505
0.119382
0.0643272
0.0527233
0.0502742
0.0492108
0.0503825
0.054096
0.0574621
0.0568633
0.054043
0.0505984
0.0494074
0.0518384
0.0550875
0.0565648
0.0557752
0.0530213
0.0501265
0.0497568
0.0513127
0.0538939
0.0658136
0.122992
0.169202
0.174904
0.12057
0.0629659
0.0517175
0.0493153
0.0481756
0.049416
0.0526748
0.0554811
0.0547401
0.0520466
0.0487727
0.0475988
0.0499264
0.0530117
0.0545012
0.0539544
0.0516207
0.0490612
0.0485471
0.0501782
0.0527976
0.0642849
0.123959
0.176371
0.180547
0.123358
0.0622805
0.0508927
0.0485337
0.0474284
0.0485699
0.0513694
0.0536243
0.0527713
0.0502382
0.0471296
0.0459631
0.0481546
0.0510493
0.0525123
0.0522073
0.0503208
0.048112
0.0475951
0.0491741
0.0517949
0.062915
0.121954
0.183359
0.187038
0.123063
0.0617457
0.0502123
0.0477595
0.0468972
0.047919
0.0501691
0.0518166
0.0508166
0.04844
0.0455854
0.0444775
0.0466209
0.0493607
0.050787
0.050656
0.0491494
0.0473019
0.0468796
0.0482792
0.0510195
0.0624763
0.123338
0.187461
0.189276
0.121055
0.0614808
0.0498032
0.0471764
0.0463964
0.0472947
0.0490594
0.0502063
0.04912
0.0469021
0.0442212
0.0431391
0.0451634
0.0477242
0.0491103
0.0491761
0.0480846
0.0466399
0.0462603
0.0475047
0.0503928
0.0618669
0.121284
0.192289
0.191693
0.121757
0.0615091
0.0497128
0.0466019
0.0458669
0.0467137
0.0480609
0.0487908
0.0476195
0.0455145
0.0429863
0.0419266
0.0438356
0.0462372
0.0476158
0.0478575
0.0471162
0.0460196
0.0456351
0.0468025
0.0500818
0.0615159
0.118999
0.194249
0.195518
0.119372
0.0616155
0.0498457
0.046167
0.045422
0.0461161
0.0470884
0.0473834
0.0461547
0.0441878
0.0418361
0.0408362
0.0426833
0.0449589
0.0462844
0.046662
0.0462215
0.045405
0.0450903
0.0462409
0.0500655
0.0618927
0.119152
0.196009
0.196886
0.118024
0.0618503
0.0502472
0.0459289
0.0450208
0.0454717
0.0461988
0.046171
0.0449057
0.0430318
0.0408094
0.0398415
0.0415913
0.0437401
0.0450594
0.0455432
0.0453883
0.0447781
0.0446051
0.0458461
0.0503029
0.0623117
0.118065
0.198257
0.198225
0.11842
0.0616432
0.0508144
0.0460464
0.0446088
0.0448492
0.0453436
0.0450548
0.0437618
0.0419897
0.0398768
0.0389477
0.0406078
0.042638
0.0439315
0.0445142
0.0445786
0.0441379
0.0441708
0.0457988
0.0507766
0.0623501
0.117028
0.19914
0.200379
0.117461
0.0613033
0.0514208
0.0463666
0.0442936
0.0442555
0.0444787
0.0440265
0.0427
0.0409845
0.039004
0.0381269
0.0397386
0.0416817
0.0429585
0.043617
0.043808
0.0435491
0.0437913
0.046015
0.0514757
0.0622965
0.117977
0.200234
0.200702
0.11815
0.0611409
0.0525067
0.0469484
0.0441162
0.0437444
0.0436828
0.043065
0.0417574
0.0401187
0.0382293
0.0373853
0.0389132
0.0407642
0.0420245
0.0427276
0.0430646
0.0430336
0.0435287
0.0464799
0.0522961
0.0619458
0.116967
0.201765
0.201001
0.120159
0.0610118
0.0535162
0.0477148
0.0441374
0.0432597
0.042938
0.0422036
0.040918
0.0393286
0.0375198
0.036703
0.0381564
0.0399377
0.0411852
0.0419066
0.0423645
0.0425428
0.0434844
0.0471548
0.0536019
0.0616934
0.11812
0.202083
0.201918
0.119784
0.0604431
0.0538204
0.0487578
0.044409
0.0428982
0.0422552
0.0413633
0.0400959
0.0385732
0.0368586
0.0360827
0.0374972
0.0392016
0.0404193
0.041156
0.0417453
0.0421761
0.0436796
0.0482669
0.0545768
0.06143
0.120371
0.202173
0.201843
0.120806
0.0597279
0.0538652
0.050052
0.0448823
0.0426826
0.0416834
0.0406581
0.0393895
0.0378981
0.0362533
0.035505
0.03686
0.0384873
0.0397037
0.0404685
0.0412012
0.0419704
0.0441231
0.0494389
0.0545293
0.0607636
0.121367
0.202541
0.201997
0.122652
0.0591038
0.0536764
0.0517765
0.0456493
0.0427
0.0412563
0.0400307
0.0387357
0.0372803
0.0356962
0.0349768
0.0362768
0.037824
0.0390383
0.0398509
0.0407923
0.0419981
0.0448361
0.0514005
0.0544012
0.0600891
0.122933
0.202197
0.202495
0.123889
0.0585597
0.0531334
0.052595
0.0466457
0.0428742
0.0410355
0.0395127
0.0381331
0.0366833
0.0351696
0.0344827
0.0357508
0.037242
0.0384686
0.0393662
0.040556
0.0421586
0.0459091
0.0527768
0.0540721
0.0599043
0.124993
0.202182
0.202058
0.125776
0.0582287
0.0524878
0.0525556
0.0482846
0.0432851
0.0410041
0.0391616
0.0376238
0.0361653
0.0346975
0.0340277
0.0352423
0.0366779
0.0379405
0.038998
0.0405007
0.0425215
0.0473606
0.0529034
0.0533218
0.0593888
0.12629
0.202383
0.201764
0.127911
0.0588017
0.0519167
0.0520802
0.0501507
0.0440798
0.041097
0.0390263
0.0372559
0.0357119
0.0342631
0.0336008
0.0347737
0.0361779
0.0375224
0.0388083
0.0406093
0.0433376
0.0497075
0.0525494
0.0525802
0.0591862
0.128212
0.202164
0.201617
0.129467
0.0587442
0.0513442
0.0513312
0.0509538
0.0455298
0.0414029
0.0389625
0.0370226
0.0353352
0.0338737
0.0332189
0.0343767
0.0357852
0.0372564
0.0387503
0.0409513
0.0450982
0.0511817
0.0519489
0.0521346
0.0599374
0.130086
0.202009
0.200924
0.130853
0.0596972
0.0509903
0.0505298
0.0506039
0.0479786
0.0422549
0.0390813
0.0369687
0.035122
0.0335818
0.0329013
0.0340549
0.0355354
0.0371465
0.0388068
0.041772
0.0476437
0.0508822
0.0512204
0.0517062
0.0603194
0.131327
0.201778
0.20011
0.132231
0.0610678
0.0508531
0.0499027
0.0500646
0.0493676
0.0441963
0.03941
0.0369471
0.0350431
0.0334289
0.0326648
0.0338749
0.0354214
0.0371041
0.0390655
0.0437397
0.0492682
0.0503186
0.0505562
0.0514803
0.0610715
0.132325
0.20094
0.198433
0.132771
0.0616364
0.0507309
0.0493946
0.049427
0.0490606
0.0468388
0.0404424
0.0370188
0.0350144
0.0333756
0.0325536
0.033818
0.0353872
0.0371743
0.0400983
0.0466544
0.0490165
0.0495964
0.0500362
0.0515148
0.0625692
0.133177
0.198843
0.195448
0.132429
0.0624171
0.0507464
0.0490014
0.0487481
0.0485926
0.0483428
0.0427099
0.0374356
0.0350663
0.0333824
0.0325505
0.03381
0.0353973
0.0375013
0.0422018
0.0484592
0.0485895
0.0488453
0.0495794
0.0515054
0.0632691
0.132938
0.195865
0.187224
0.129502
0.0628543
0.0507484
0.0486842
0.0481673
0.0479737
0.048007
0.0454702
0.0387972
0.0353335
0.033424
0.0325845
0.0338369
0.0356228
0.0386581
0.0452662
0.0482174
0.0480117
0.0482126
0.0491675
0.0514523
0.0634623
0.129968
0.187728
0.153487
0.412739
0.67679
0.808885
0.832571
0.784193
0.741203
0.722824
0.703063
0.649297
0.542028
0.44352
0.395715
0.394389
0.417738
0.448636
0.477836
0.503394
0.525395
0.544155
0.56104
0.575789
0.587756
0.594754
0.59157
0.565581
0.488334
0.333966
0.219219
0.0973806
0.14966
0.476115
0.75315
0.850803
0.835868
0.774391
0.729499
0.713704
0.702881
0.672386
0.592385
0.472632
0.404606
0.388974
0.40494
0.432851
0.461451
0.487631
0.510232
0.529866
0.547276
0.562767
0.575812
0.584657
0.584965
0.570104
0.524316
0.392466
0.224729
0.096202
0.163948
0.547929
0.810259
0.867791
0.818937
0.754085
0.708756
0.695467
0.690466
0.665459
0.590599
0.473832
0.404766
0.382676
0.392719
0.417237
0.445002
0.470463
0.493115
0.513137
0.530624
0.545693
0.558423
0.568338
0.571003
0.558723
0.521642
0.432174
0.247384
0.0961909
0.178034
0.620025
0.85016
0.872274
0.799213
0.73066
0.683516
0.671709
0.672952
0.655615
0.593774
0.484905
0.409182
0.378152
0.381063
0.401717
0.427685
0.453059
0.475362
0.495277
0.512599
0.527452
0.540099
0.549615
0.553194
0.544048
0.514042
0.447864
0.294439
0.10048
0.188755
0.667153
0.877911
0.862745
0.773979
0.700748
0.65431
0.64594
0.652349
0.637403
0.584888
0.484873
0.408405
0.372891
0.37012
0.386791
0.410354
0.434981
0.457673
0.477339
0.494177
0.508696
0.520702
0.529458
0.532549
0.525222
0.501119
0.44979
0.336857
0.120119
0.201956
0.70983
0.897202
0.84534
0.744942
0.668391
0.62507
0.62205
0.634164
0.619175
0.5707
0.477407
0.405145
0.366904
0.359662
0.373422
0.394365
0.417739
0.4399
0.459615
0.475796
0.48963
0.500622
0.508251
0.510353
0.503896
0.48498
0.447553
0.370595
0.138939
0.216253
0.763484
0.916784
0.828601
0.715418
0.636339
0.597522
0.598271
0.615306
0.60025
0.553108
0.466702
0.398931
0.359414
0.350117
0.361108
0.380182
0.402105
0.423397
0.4423
0.458066
0.47069
0.480321
0.486661
0.488124
0.48312
0.469513
0.450068
0.408401
0.144344
0.23167
0.819937
0.929784
0.809129
0.687767
0.612773
0.578092
0.579268
0.596897
0.581497
0.533343
0.454921
0.389515
0.350886
0.341381
0.350362
0.367899
0.388322
0.408505
0.426411
0.441314
0.452574
0.460687
0.465791
0.467254
0.46476
0.460584
0.463041
0.413075
0.146565
0.246957
0.872566
0.933481
0.788473
0.664078
0.594019
0.562589
0.563358
0.580638
0.564845
0.515399
0.44167
0.37856
0.342648
0.333798
0.341866
0.357934
0.376772
0.395575
0.412155
0.425884
0.435951
0.442826
0.446894
0.448932
0.450758
0.463182
0.478444
0.399979
0.147464
0.261997
0.915645
0.929116
0.767578
0.646192
0.580254
0.551035
0.549334
0.563987
0.549242
0.501441
0.426479
0.366803
0.334438
0.328545
0.335963
0.350485
0.367713
0.384908
0.399895
0.412145
0.420987
0.426802
0.430552
0.433951
0.443428
0.472259
0.464357
0.385146
0.14782
0.277197
0.94857
0.917577
0.748341
0.634492
0.571609
0.539863
0.532666
0.544249
0.531044
0.485827
0.409853
0.355369
0.329022
0.325974
0.333055
0.345821
0.361303
0.376436
0.389818
0.400381
0.407925
0.412838
0.416701
0.423161
0.445376
0.481464
0.446486
0.37197
0.147652
0.293327
0.96808
0.903721
0.735848
0.627851
0.565291
0.528831
0.515701
0.521107
0.506421
0.459977
0.393005
0.346377
0.327671
0.326376
0.332632
0.343941
0.357459
0.370444
0.381841
0.390585
0.396697
0.400871
0.405616
0.418476
0.454533
0.468826
0.430519
0.358155
0.146398
0.308592
0.97958
0.894988
0.730116
0.62555
0.56214
0.520797
0.499634
0.495034
0.475508
0.429556
0.378812
0.34275
0.33029
0.33007
0.33493
0.344506
0.355628
0.366379
0.375434
0.382269
0.386959
0.390889
0.397982
0.422217
0.462919
0.452484
0.413521
0.340578
0.144155
0.32185
0.991505
0.892695
0.730755
0.629646
0.564558
0.518117
0.487618
0.471808
0.446742
0.406837
0.371781
0.345402
0.336238
0.336267
0.339369
0.346901
0.355412
0.363323
0.369869
0.37476
0.378199
0.382431
0.394336
0.430779
0.451375
0.433903
0.393907
0.322276
0.141887
0.33383
1.00444
0.896777
0.738714
0.641126
0.57329
0.521209
0.482677
0.457181
0.428642
0.396046
0.372307
0.352767
0.344425
0.343689
0.344983
0.3503
0.355792
0.360626
0.364636
0.367637
0.370303
0.375971
0.397527
0.441389
0.433732
0.414343
0.373843
0.307109
0.140123
0.344827
1.02126
0.909117
0.754664
0.660178
0.592467
0.536354
0.488991
0.454303
0.424097
0.397869
0.379337
0.362749
0.354032
0.351417
0.351454
0.354097
0.356357
0.358185
0.359772
0.361143
0.363754
0.373674
0.406651
0.432387
0.416126
0.395437
0.356324
0.296051
0.138773
0.35643
1.04351
0.929617
0.779214
0.688696
0.623689
0.56765
0.514938
0.472718
0.439652
0.413833
0.394035
0.376154
0.366223
0.360498
0.358886
0.35814
0.357248
0.356257
0.355704
0.355942
0.359915
0.378836
0.42002
0.417849
0.400676
0.379083
0.342946
0.287739
0.137723
0.367685
1.0707
0.959003
0.81261
0.727131
0.667332
0.615938
0.56221
0.51467
0.476317
0.445072
0.418914
0.396323
0.382602
0.37232
0.367828
0.362755
0.358844
0.355377
0.353102
0.353245
0.361262
0.391077
0.416005
0.404332
0.387342
0.366289
0.333255
0.280741
0.137017
0.377498
1.10432
0.998223
0.85442
0.775472
0.72429
0.681344
0.630852
0.580858
0.536185
0.496114
0.459458
0.428051
0.407472
0.38911
0.378659
0.368632
0.361679
0.356232
0.352748
0.354467
0.371001
0.407984
0.407501
0.394044
0.376764
0.356982
0.326212
0.27532
0.136382
0.388045
1.14494
1.04465
0.902701
0.832647
0.793739
0.761661
0.719276
0.670849
0.622316
0.572505
0.522899
0.480138
0.44567
0.413461
0.392951
0.376987
0.366858
0.359594
0.355846
0.362087
0.389813
0.409525
0.39987
0.386105
0.368897
0.350158
0.320714
0.270908
0.135896
0.405344
1.18197
1.09327
0.954429
0.89511
0.870575
0.850946
0.821277
0.780474
0.732598
0.675973
0.616547
0.558126
0.503847
0.450218
0.41486
0.390981
0.376331
0.366534
0.364295
0.379363
0.409262
0.406841
0.394305
0.379721
0.363609
0.345277
0.316366
0.267408
0.135558
0.417729
1.2234
1.14182
1.00678
0.958819
0.948523
0.941792
0.926399
0.898668
0.856418
0.799426
0.735902
0.665562
0.58905
0.509223
0.451727
0.415222
0.392665
0.379456
0.381388
0.406039
0.414091
0.404221
0.389248
0.375047
0.360095
0.34157
0.312604
0.263811
0.135262
0.430012
1.24675
1.17528
1.05269
1.02037
1.02423
1.03034
1.02652
1.01282
0.981481
0.933398
0.875471
0.800125
0.70637
0.60275
0.512357
0.455629
0.420497
0.403444
0.410788
0.422623
0.414949
0.402278
0.385307
0.371978
0.357578
0.338312
0.308995
0.260358
0.134793
0.438395
1.23356
1.1899
1.0945
1.08275
1.10042
1.11881
1.12528
1.12048
1.10284
1.07142
1.02425
0.953437
0.855293
0.736731
0.609707
0.522194
0.468905
0.445682
0.441495
0.430275
0.415623
0.399529
0.382416
0.369804
0.35527
0.335229
0.305345
0.257047
0.134252
0.43805
1.03433
1.12653
1.13263
1.14864
1.17946
1.21099
1.22904
1.23049
1.22132
1.20588
1.17323
1.11701
1.03083
0.911275
0.758601
0.629351
0.547454
0.495565
0.462146
0.436103
0.415179
0.395127
0.379179
0.368001
0.352921
0.332153
0.301566
0.253645
0.133696
0.097315
0.219799
0.334334
0.485939
0.5629
0.589222
0.592934
0.586202
0.574173
0.559205
0.542194
0.523313
0.501665
0.4757
0.445306
0.41447
0.392933
0.399055
0.454757
0.561334
0.668222
0.718044
0.735552
0.755189
0.802052
0.852221
0.831488
0.697724
0.425244
0.154924
0.0961109
0.225137
0.391897
0.522956
0.568544
0.584049
0.583942
0.575328
0.561533
0.545666
0.528423
0.509009
0.485718
0.459372
0.430105
0.402415
0.388788
0.410009
0.486238
0.610861
0.686861
0.715418
0.725352
0.742792
0.791484
0.855022
0.872922
0.774436
0.491723
0.151401
0.0960394
0.247399
0.432351
0.52133
0.558459
0.570771
0.568462
0.558686
0.54541
0.530153
0.512455
0.49212
0.468737
0.442752
0.415026
0.390941
0.383393
0.410744
0.486977
0.60879
0.679503
0.701623
0.706069
0.721211
0.769954
0.838162
0.890495
0.833044
0.565983
0.165929
0.0997869
0.294495
0.448464
0.514609
0.544717
0.553664
0.550205
0.540455
0.52773
0.512658
0.494915
0.474377
0.451131
0.425897
0.399993
0.380124
0.380017
0.416492
0.498732
0.609442
0.668254
0.68274
0.681109
0.695005
0.744848
0.817411
0.894254
0.872994
0.637781
0.180329
0.117379
0.337698
0.451158
0.502527
0.526402
0.533259
0.530031
0.521083
0.508992
0.494228
0.476749
0.456441
0.433488
0.408864
0.385569
0.369952
0.375699
0.416099
0.498408
0.599304
0.649416
0.661755
0.65453
0.66515
0.712954
0.790381
0.883196
0.90017
0.683475
0.191244
0.139062
0.370236
0.448886
0.486567
0.505068
0.511085
0.50878
0.501064
0.489865
0.475772
0.458815
0.439065
0.416697
0.393139
0.372337
0.360153
0.370321
0.413132
0.490436
0.584
0.630813
0.643359
0.630105
0.634921
0.680184
0.760374
0.865769
0.920143
0.727081
0.204477
0.144755
0.408793
0.450629
0.47092
0.484296
0.488952
0.487371
0.480882
0.470927
0.457884
0.44177
0.422721
0.401319
0.37916
0.360617
0.350964
0.363097
0.406843
0.478766
0.565565
0.611728
0.624406
0.605761
0.606558
0.64785
0.730081
0.848609
0.940147
0.782787
0.219042
0.147324
0.416144
0.463218
0.461304
0.465736
0.468082
0.466464
0.461209
0.452727
0.440966
0.425954
0.407882
0.387671
0.36707
0.350371
0.342513
0.354732
0.397658
0.466309
0.545576
0.593144
0.606176
0.586807
0.587055
0.624033
0.701823
0.828691
0.952967
0.839798
0.234281
0.148179
0.40315
0.479174
0.463041
0.451278
0.449478
0.447286
0.443021
0.435925
0.425585
0.411847
0.394961
0.376163
0.35734
0.342167
0.335397
0.346522
0.386702
0.452715
0.527726
0.576435
0.589743
0.57106
0.571331
0.604882
0.677665
0.8077
0.95677
0.893319
0.249673
0.14861
0.388011
0.466303
0.472226
0.443413
0.434209
0.43075
0.426865
0.420929
0.41196
0.399588
0.384219
0.367091
0.350071
0.336287
0.330367
0.338145
0.37456
0.437242
0.513625
0.560194
0.572175
0.557035
0.559638
0.591076
0.659502
0.786565
0.952651
0.936431
0.26476
0.148546
0.374713
0.447922
0.481955
0.444948
0.423178
0.416718
0.412715
0.407712
0.400068
0.389403
0.376011
0.360746
0.345461
0.333121
0.32727
0.332219
0.361987
0.420456
0.49652
0.541003
0.551234
0.540146
0.548533
0.582323
0.647637
0.766961
0.941534
0.96954
0.279941
0.147343
0.361005
0.431526
0.46899
0.453479
0.417994
0.405387
0.400517
0.396215
0.390003
0.381222
0.37005
0.356979
0.343707
0.332725
0.327228
0.329954
0.351457
0.402906
0.469647
0.515082
0.527266
0.522653
0.537579
0.576209
0.640779
0.754189
0.927751
0.990159
0.296265
0.145063
0.343774
0.414496
0.452334
0.463349
0.421137
0.397431
0.390281
0.386179
0.381388
0.374568
0.365772
0.355347
0.344423
0.335183
0.330567
0.331739
0.346286
0.386317
0.437953
0.482525
0.500519
0.50626
0.529579
0.573095
0.638622
0.748368
0.919114
1.00253
0.311414
0.142701
0.325359
0.395108
0.433651
0.452054
0.429589
0.393464
0.38173
0.377314
0.373762
0.368914
0.362587
0.355081
0.346977
0.339765
0.336808
0.337162
0.347869
0.376509
0.413075
0.452002
0.476558
0.493897
0.52675
0.575544
0.642871
0.748889
0.91768
1.01538
0.324695
0.140838
0.309918
0.375309
0.414141
0.434075
0.440936
0.395963
0.375185
0.369504
0.366727
0.363755
0.359905
0.355415
0.350403
0.345513
0.344262
0.345232
0.354531
0.375444
0.400691
0.433332
0.461865
0.489221
0.530127
0.584613
0.654537
0.75678
0.922779
1.0297
0.336667
0.139425
0.298242
0.357881
0.395689
0.416003
0.43227
0.404057
0.372451
0.363053
0.360403
0.359036
0.357576
0.356037
0.354234
0.352201
0.352196
0.354931
0.364173
0.381629
0.401461
0.428391
0.459349
0.496169
0.545899
0.604316
0.674031
0.77284
0.935804
1.04796
0.347809
0.138279
0.289654
0.344297
0.38004
0.40015
0.417726
0.41784
0.376608
0.359009
0.355328
0.355167
0.355878
0.357134
0.358408
0.359965
0.36153
0.367289
0.377767
0.396172
0.417373
0.444163
0.47849
0.523024
0.578031
0.636157
0.702996
0.797552
0.95681
1.07162
0.359446
0.137341
0.282796
0.334434
0.367481
0.387244
0.404396
0.41545
0.387946
0.359716
0.352561
0.352788
0.35535
0.359104
0.363435
0.369364
0.374007
0.384403
0.398723
0.421685
0.449742
0.482434
0.521951
0.571525
0.627254
0.680658
0.742104
0.830997
0.986602
1.10026
0.370916
0.136628
0.277403
0.327425
0.358071
0.377608
0.39436
0.407652
0.40579
0.368446
0.353498
0.352672
0.356633
0.362556
0.370209
0.381228
0.391896
0.410568
0.432338
0.462904
0.50267
0.545105
0.590773
0.642193
0.694267
0.738809
0.79134
0.873183
1.02638
1.13532
0.381087
0.136283
0.273044
0.322112
0.351336
0.370295
0.386977
0.400498
0.409397
0.38619
0.36053
0.355858
0.360483
0.368486
0.379831
0.397354
0.418647
0.451462
0.487808
0.531552
0.582436
0.634448
0.684526
0.733257
0.776731
0.809846
0.84988
0.922106
1.07326
1.17743
0.391798
0.136145
0.269701
0.317902
0.346582
0.365097
0.381695
0.395403
0.407565
0.408453
0.377016
0.364137
0.36799
0.378881
0.395456
0.421855
0.459782
0.514514
0.57097
0.630095
0.690588
0.748435
0.79853
0.838692
0.868623
0.888616
0.913725
0.97454
1.12173
1.21521
0.409767
0.135842
0.266213
0.314263
0.343034
0.361592
0.377028
0.391067
0.405477
0.415007
0.403966
0.380932
0.381718
0.397008
0.422477
0.463016
0.525701
0.606984
0.685453
0.756124
0.819579
0.876598
0.920915
0.948042
0.962545
0.968735
0.978878
1.02796
1.16987
1.25621
0.422723
0.13533
0.2628
0.31093
0.340124
0.3592
0.373925
0.387091
0.404123
0.416841
0.424143
0.410902
0.407319
0.4283
0.468297
0.531653
0.628848
0.733445
0.828071
0.902793
0.959887
1.00674
1.03918
1.0531
1.05453
1.04689
1.04194
1.07473
1.20278
1.27895
0.435278
0.134774
0.259325
0.307575
0.337334
0.357224
0.371843
0.384638
0.402189
0.418136
0.433636
0.446325
0.452936
0.482536
0.543938
0.642187
0.774846
0.893066
0.989974
1.05893
1.10471
1.13345
1.15096
1.15624
1.14626
1.12511
1.10527
1.11733
1.21638
1.26328
0.443863
0.134239
0.255906
0.30402
0.334507
0.35525
0.370319
0.381843
0.398581
0.418766
0.44106
0.47039
0.509445
0.570114
0.66434
0.807599
0.962934
1.08017
1.16312
1.21568
1.24614
1.25722
1.26514
1.26317
1.24171
1.20644
1.17164
1.1554
1.15201
1.05943
0.443478
0.159572
0.156357
0.152249
0.15036
0.147736
0.14569
0.143541
0.14181
0.14008
0.139342
0.140224
0.141752
0.143131
0.145464
0.148761
0.152706
0.157529
0.163417
0.170489
0.178871
0.18823
0.197936
0.207391
0.216331
0.224152
0.230592
0.235606
0.239077
0.241167
0.241887
0.241296
0.239676
0.237216
0.234191
0.230861
0.227309
0.223529
0.219438
0.214935
0.210007
0.204726
0.199185
0.193584
0.188062
0.182886
0.178152
0.173918
0.169826
0.165682
0.161282
0.156857
0.152491
0.148167
0.143779
0.139473
0.135317
0.13129
0.127411
0.123638
0.120091
0.116887
0.11407
0.11164
0.109519
0.107734
0.106253
0.105063
0.104134
0.103406
0.102813
0.102305
0.101858
0.101473
0.10116
0.100912
0.10072
0.100576
0.100483
0.100441
0.100458
0.100539
0.100682
0.100881
0.101133
0.10144
0.101797
0.102189
0.10259
0.102978
0.103341
0.103678
0.103996
0.104307
0.104621
0.104934
0.105242
0.105531
0.105826
0.106109
0.106448
0.106812
0.107221
0.107739
0.108306
0.10892
0.109585
0.110323
0.111189
0.112117
0.113216
0.114482
0.115858
0.117404
0.119063
0.120615
0.121999
0.123433
0.125137
0.127203
0.129129
0.130293
0.131226
0.132131
0.13299
0.133742
0.851073
0.815071
0.766583
0.740816
0.717593
0.698024
0.677808
0.659502
0.64472
0.639115
0.643965
0.654332
0.668111
0.681894
0.70154
0.728472
0.768464
0.824295
0.898719
0.99293
1.1021
1.22396
1.34805
1.4705
1.58053
1.67287
1.74642
1.79813
1.83181
1.84967
1.85472
1.85071
1.84046
1.82553
1.80589
1.78029
1.74718
1.70567
1.65587
1.59848
1.5351
1.46742
1.39775
1.32765
1.2585
1.18866
1.11911
1.05046
0.982298
0.915818
0.851442
0.790708
0.733442
0.678636
0.62669
0.577883
0.532321
0.489879
0.451202
0.416627
0.386312
0.360138
0.337564
0.318054
0.301405
0.287857
0.277286
0.269111
0.262578
0.256966
0.251744
0.246651
0.241627
0.236684
0.231819
0.22708
0.222546
0.21831
0.214436
0.210938
0.207797
0.204885
0.202174
0.199657
0.197316
0.195141
0.193103
0.19116
0.189268
0.187409
0.18558
0.183804
0.182097
0.180491
0.178974
0.177538
0.176173
0.174929
0.173819
0.172954
0.172313
0.171969
0.172146
0.172724
0.173605
0.174669
0.175909
0.177679
0.17984
0.182561
0.18589
0.189923
0.194406
0.198954
0.203766
0.208989
0.214754
0.220567
0.226406
0.232302
0.237464
0.24182
0.245525
0.249013
0.252472
2.49443
2.43289
2.33559
2.27256
2.2224
2.17193
2.11737
2.06153
2.0138
1.95452
1.88981
1.834
1.78516
1.74785
1.72979
1.72951
1.75581
1.8141
1.90962
2.04442
2.21438
2.40524
2.59969
2.78715
2.95598
3.09992
3.21892
3.31006
3.37475
3.41662
3.43939
3.44665
3.44207
3.42807
3.40594
3.37459
3.33192
3.276
3.20592
3.12205
3.02598
2.9194
2.80408
2.68143
2.55236
2.41639
2.27357
2.12629
1.97686
1.82714
1.68006
1.53893
1.40568
1.28161
1.16749
1.06269
0.966037
0.876998
0.795143
0.720096
0.652652
0.593822
0.543429
0.500966
0.465624
0.436604
0.413283
0.394685
0.379488
0.366525
0.355058
0.344701
0.335228
0.326512
0.318451
0.310995
0.304177
0.298049
0.29259
0.287688
0.28318
0.278962
0.275025
0.27134
0.267866
0.264559
0.261362
0.258216
0.255077
0.251939
0.248821
0.245761
0.242818
0.240045
0.237477
0.235077
0.232787
0.230624
0.228671
0.227043
0.225748
0.224868
0.224653
0.224925
0.225577
0.226614
0.227975
0.229978
0.232437
0.235443
0.239063
0.243267
0.247676
0.252279
0.257222
0.262303
0.267421
0.272548
0.277316
0.281591
0.285594
0.289341
0.292666
0.296166
0.300268
5.42299
5.37346
5.28
5.20735
5.13961
5.06206
4.96201
4.8239
4.64592
4.45459
4.25111
4.05468
3.87665
3.72646
3.61459
3.54496
3.52796
3.56972
3.67162
3.82678
4.01999
4.23065
4.44136
4.63978
4.81606
4.96551
5.08828
5.18441
5.25674
5.30907
5.34485
5.36749
5.37847
5.37945
5.37047
5.34941
5.31319
5.25895
5.18514
5.09179
4.98007
4.8512