/*--------------------------------*- C++ -*----------------------------------*\
| =========                 |                                                 |
| \\      /  F ield         | OpenFOAM: The Open Source CFD Toolbox           |
|  \\    /   O peration     | Version:  2112                                  |
|   \\  /    A nd           | Website:  www.openfoam.com                      |
|    \\/     M anipulation  |                                                 |
\*---------------------------------------------------------------------------*/
FoamFile
{
    version     2.0;
    format      ascii;
    arch        "LSB;label=32;scalar=64";
    class       volScalarField;
    location    "0.00953";
    object      nut;
}
// * * * * * * * * * * * * * * * * * * * * * * * * * * * * * * * * * * * * * //

dimensions      [0 2 -1 0 0 0 0];

internalField   nonuniform List<scalar> 
13875
(
0.051168
0.0366259
0.0343666
0.0343364
0.0342941
0.0343303
0.0342847
0.0342879
0.0343063
0.0342928
0.034278
0.0342947
0.0343245
0.0343415
0.0343304
0.0342932
0.0342674
0.0342896
0.0343024
0.0343265
0.0343037
0.0343344
0.0343816
0.0365674
0.0514316
0.0532618
0.0341205
0.0322231
0.0321133
0.0320588
0.0320816
0.0320334
0.032046
0.0320628
0.0320446
0.0320251
0.0320466
0.0320563
0.0320726
0.0320603
0.0320469
0.0320035
0.0320343
0.032046
0.0320758
0.0320635
0.0321025
0.0322282
0.0340553
0.0536408
0.0564567
0.0335623
0.0318037
0.0315983
0.0315661
0.0315775
0.0314768
0.0314725
0.0314805
0.0314588
0.0314366
0.0314624
0.0315329
0.031556
0.0315346
0.0314644
0.0314078
0.0314449
0.031478
0.0315675
0.0315644
0.0315803
0.0317946
0.0334957
0.0565961
0.0590705
0.0332331
0.0314898
0.0312805
0.0312585
0.031263
0.0311518
0.0311326
0.031133
0.0311115
0.0310931
0.0311151
0.0312161
0.03124
0.0312182
0.0311165
0.0310726
0.0311022
0.0311464
0.0312537
0.0312552
0.0312625
0.0314851
0.0331698
0.0591436
0.0611263
0.0330042
0.0312465
0.031005
0.0309813
0.0309784
0.0308661
0.0308415
0.0308423
0.0308231
0.0308063
0.0308253
0.0309273
0.0309546
0.0309297
0.030827
0.0307861
0.0308146
0.0308593
0.0309685
0.0309767
0.0309899
0.0312305
0.0329193
0.0612554
0.0628194
0.0328484
0.0310894
0.0307725
0.03075
0.0307293
0.0306071
0.0305761
0.0305777
0.0305604
0.0305446
0.0305613
0.0306646
0.0306948
0.0306676
0.0305623
0.0305257
0.0305532
0.0305998
0.0307198
0.0307437
0.0307612
0.0310593
0.0328222
0.0629719
0.0648281
0.0330734
0.0311042
0.0306334
0.0305661
0.0305218
0.0303807
0.0303378
0.0303395
0.0303239
0.030308
0.0303228
0.0304283
0.0304586
0.0304283
0.0303216
0.0302927
0.0303205
0.0303761
0.030512
0.0305601
0.0306333
0.0311136
0.0330702
0.0648673
0.067095
0.0339368
0.0314254
0.0306512
0.0304848
0.0303694
0.0301961
0.0301324
0.0301312
0.0301164
0.0300992
0.0301096
0.0302188
0.0302517
0.0302186
0.0301074
0.0300887
0.0301205
0.0301897
0.0303573
0.0304674
0.0306299
0.0313927
0.033896
0.0673623
0.073647
0.0362964
0.0320419
0.0308463
0.0304751
0.0302769
0.0300555
0.0299674
0.0299572
0.0299445
0.029928
0.0299337
0.030047
0.0300827
0.0300487
0.029934
0.0299224
0.029958
0.0300443
0.0302599
0.0304505
0.0308025
0.0319356
0.036
0.0741952
0.0829022
0.0384704
0.0327366
0.03119
0.0305802
0.0302414
0.02998
0.029882
0.0298573
0.0298423
0.0298278
0.0298298
0.029943
0.0299815
0.0299492
0.0298452
0.0298318
0.0298726
0.0299656
0.0302205
0.0305507
0.0310812
0.0326237
0.0381053
0.0835482
0.0907212
0.0441368
0.0346479
0.0319947
0.0308164
0.0303529
0.0300419
0.0299065
0.0298649
0.0298419
0.0298259
0.0298245
0.0299323
0.0299724
0.0299499
0.0298709
0.0298548
0.0299025
0.0300352
0.0303042
0.0307949
0.031882
0.034363
0.0432646
0.089348
0.0950669
0.054525
0.0403599
0.0334447
0.0318665
0.0308287
0.0303255
0.030129
0.0300502
0.0300133
0.0299927
0.0299917
0.030084
0.0301261
0.0301191
0.0300712
0.0300627
0.0301352
0.0303207
0.0308361
0.0318
0.0332295
0.0398478
0.0533649
0.0942586
0.0866089
0.0688967
0.0514649
0.0417304
0.0343563
0.0319154
0.0312746
0.0308171
0.0306307
0.0305445
0.0305014
0.0304935
0.0305636
0.0306064
0.0306222
0.030621
0.0306754
0.0308694
0.0313303
0.0320039
0.0347649
0.0415788
0.0509428
0.0687704
0.0866023
0.0796032
0.0660274
0.058087
0.0655576
0.0416639
0.0371911
0.0336499
0.0324263
0.0320301
0.0319667
0.0319287
0.0319202
0.0319817
0.0320239
0.0320529
0.0320838
0.0321394
0.0325345
0.0340786
0.0382573
0.0432077
0.0657016
0.0578278
0.0661762
0.0816119
0.075324
0.0643257
0.0565459
0.0605688
0.0560516
0.0540045
0.0443926
0.038816
0.0367361
0.0358854
0.0354996
0.0353747
0.035396
0.0354513
0.0355614
0.0358617
0.0366657
0.0389001
0.0451623
0.0552234
0.0557419
0.0612429
0.0565964
0.0641558
0.0746651
0.0671635
0.0618637
0.0542882
0.0572448
0.0559957
0.0572126
0.0545455
0.0530189
0.0508051
0.0483576
0.0474714
0.0471358
0.0470561
0.0471383
0.0473054
0.0478022
0.0503989
0.0542658
0.0554571
0.057725
0.0556151
0.0580077
0.05431
0.0614992
0.066482
0.0624028
0.058209
0.052455
0.0550263
0.056781
0.0611826
0.0680294
0.0729149
0.0700968
0.0707318
0.0730281
0.0745254
0.0753164
0.0749791
0.0734534
0.0726753
0.0700297
0.0728153
0.0686675
0.0612174
0.0562965
0.0552957
0.0519664
0.0575801
0.06244
0.0570049
0.0546975
0.0530988
0.0568873
0.0599433
0.0629965
0.0707249
0.0791817
0.0745018
0.0703726
0.0692357
0.0693719
0.0699033
0.0696186
0.0697489
0.0726742
0.0739542
0.0767233
0.0708373
0.0641711
0.060917
0.0576384
0.0528298
0.0542721
0.0567935
0.0513854
0.0541874
0.0558973
0.0618355
0.0669548
0.0648279
0.0672626
0.0751786
0.0744191
0.0705124
0.0687148
0.0683273
0.0684309
0.0688754
0.0698231
0.0717368
0.0728642
0.0731286
0.0677382
0.0667133
0.069645
0.0630078
0.0562539
0.0544212
0.0521627
0.0493943
0.0573773
0.060372
0.0657059
0.0686901
0.0645585
0.0638701
0.0695226
0.0719023
0.0704812
0.0687458
0.0672044
0.0664749
0.0680349
0.0700037
0.0709331
0.0699101
0.0678306
0.0645629
0.0665457
0.0707313
0.066441
0.0608718
0.0576559
0.0487889
0.0775497
0.0887031
0.0774204
0.0652317
0.0650144
0.0615829
0.0606745
0.0655436
0.0693867
0.069488
0.0676753
0.0651975
0.0640286
0.066326
0.0689878
0.0694738
0.0672173
0.0641093
0.0614779
0.063481
0.0667695
0.0669112
0.0799034
0.0918453
0.0823127
0.128672
0.160962
0.0900772
0.0619977
0.0608932
0.0585615
0.0580274
0.0625675
0.0669376
0.0678016
0.0659056
0.0628088
0.0613627
0.0640721
0.0672161
0.0675485
0.0647433
0.0613895
0.0587427
0.0602323
0.0623262
0.06379
0.0931621
0.165429
0.134526
0.152999
0.146108
0.0841906
0.0591619
0.0575377
0.0559786
0.0556529
0.0601264
0.0646187
0.0657551
0.0636936
0.0602853
0.0586554
0.0614841
0.0649647
0.0654567
0.0624512
0.0591025
0.056258
0.0573152
0.0586847
0.0606932
0.083901
0.144395
0.15345
0.161628
0.146395
0.0767361
0.0569868
0.054724
0.0536241
0.0536088
0.0579004
0.0623735
0.0635481
0.0612709
0.0576794
0.0560829
0.058959
0.0626583
0.0633638
0.0602124
0.0568517
0.0541838
0.0548466
0.0558812
0.0585611
0.0777076
0.150573
0.160718
0.167401
0.147376
0.0726788
0.0554047
0.0526385
0.051636
0.0519524
0.0559391
0.0601884
0.0612598
0.0589009
0.0552719
0.0537014
0.0565504
0.0603719
0.061189
0.0581338
0.0548449
0.0523865
0.0527437
0.053851
0.0570197
0.0744342
0.154456
0.167504
0.174593
0.151534
0.0699559
0.0539181
0.0510113
0.0499594
0.0506054
0.0542234
0.0581094
0.0590305
0.0566828
0.0530638
0.0515108
0.0542568
0.0580693
0.0590034
0.0562197
0.0530861
0.0508006
0.0508428
0.0521729
0.0553492
0.0714986
0.157045
0.177199
0.18441
0.147537
0.0667637
0.0524978
0.0497572
0.0486061
0.0494772
0.0527125
0.0560938
0.0567292
0.0544388
0.0510047
0.0495301
0.0522281
0.0559669
0.0569365
0.0544748
0.0515482
0.0494302
0.0493213
0.0509378
0.054019
0.0689832
0.155312
0.184342
0.1902
0.146653
0.0648499
0.0514213
0.0487945
0.0475618
0.0484888
0.0513492
0.0542592
0.0546731
0.0524612
0.0491652
0.0477317
0.050307
0.0539076
0.0549585
0.052882
0.0502189
0.0482788
0.0481156
0.0498307
0.0528012
0.067173
0.155712
0.192047
0.195268
0.148659
0.0637357
0.0505422
0.0480059
0.0468221
0.047631
0.0501089
0.0525626
0.0527505
0.0506535
0.0475184
0.0461002
0.0485374
0.0519249
0.0530166
0.051377
0.0490245
0.047276
0.0471343
0.0488287
0.0517332
0.0652871
0.151075
0.200147
0.202233
0.145861
0.0627875
0.0498389
0.0472328
0.0462343
0.0469705
0.0489989
0.0509348
0.050874
0.0488695
0.0459527
0.0446254
0.0470031
0.0502606
0.0513523
0.050017
0.0479611
0.0464534
0.046364
0.0479118
0.0509541
0.0646007
0.151858
0.203882
0.204398
0.142046
0.0622588
0.0494296
0.0465509
0.0456748
0.0463506
0.0479823
0.0494843
0.0492253
0.047338
0.0445847
0.0432874
0.0455534
0.0486118
0.0497091
0.0487485
0.0470379
0.0457873
0.0456782
0.0470286
0.0503356
0.0636978
0.14698
0.209142
0.206835
0.141917
0.062198
0.0493187
0.0459365
0.0451085
0.0457604
0.0470784
0.0482014
0.047787
0.0459745
0.0433383
0.0420851
0.0442138
0.0471351
0.0482728
0.047602
0.0462096
0.0451598
0.0450052
0.0462464
0.0500085
0.0631054
0.143589
0.211748
0.21093
0.137538
0.0619031
0.0493897
0.0454699
0.044641
0.0451673
0.0462267
0.0469482
0.0463701
0.0446498
0.0421864
0.0409977
0.0430694
0.045849
0.0469684
0.0465416
0.0454485
0.044532
0.0444242
0.04566
0.0499463
0.0631386
0.143055
0.213498
0.21197
0.134957
0.0617351
0.0496946
0.0451715
0.0442019
0.0445301
0.0454356
0.0458505
0.0451635
0.0435138
0.0411511
0.0400151
0.0419563
0.0446265
0.0457715
0.0455592
0.0447555
0.0439177
0.0439021
0.045241
0.050073
0.0632707
0.139908
0.215967
0.212966
0.134463
0.0614468
0.0500642
0.0452149
0.0438087
0.0439455
0.0446584
0.0448399
0.0440449
0.0424734
0.0402237
0.039126
0.0409698
0.043497
0.0446506
0.0446402
0.0440529
0.0433523
0.0435117
0.0451414
0.0504251
0.0629988
0.137947
0.21684
0.215093
0.132565
0.0610577
0.0504511
0.0454696
0.0434984
0.0433985
0.0438903
0.043884
0.0430163
0.0414833
0.0393374
0.0383162
0.0400816
0.0425462
0.0436944
0.0437996
0.0433561
0.0428325
0.0431554
0.0453531
0.0509262
0.0628189
0.138361
0.217723
0.215454
0.132632
0.0608958
0.0512573
0.0459355
0.0433217
0.042919
0.0431672
0.0429853
0.0420846
0.0406103
0.0385646
0.0375804
0.0392566
0.0415978
0.0427496
0.0429745
0.0427059
0.0423608
0.0429272
0.045749
0.0516829
0.0623593
0.136723
0.21914
0.21553
0.134922
0.0607618
0.0520225
0.0465636
0.0433633
0.0424645
0.0424906
0.0421608
0.0412548
0.0398305
0.0378394
0.0369067
0.0384891
0.0407673
0.0419089
0.0421939
0.0421014
0.0419198
0.0429348
0.0463906
0.0524493
0.0618621
0.137394
0.219058
0.215959
0.134714
0.0602209
0.052226
0.0474339
0.0436203
0.0421297
0.0418779
0.041368
0.0404325
0.0390569
0.0371718
0.0362981
0.0378258
0.0400153
0.0411288
0.0414847
0.0415567
0.0415816
0.0431269
0.0472856
0.0527716
0.0613912
0.140007
0.21876
0.215103
0.136726
0.0597076
0.0522219
0.0485476
0.0440598
0.0419559
0.0413527
0.0406733
0.0397221
0.0383946
0.0365634
0.0357327
0.0371691
0.0393076
0.0404043
0.0408231
0.0410981
0.041438
0.0435488
0.0482393
0.0526452
0.0608554
0.141333
0.218617
0.214588
0.139381
0.0595242
0.0521126
0.0499306
0.0447186
0.0419841
0.0409671
0.0400632
0.0390614
0.0377684
0.0360078
0.0352158
0.036576
0.0386275
0.0397292
0.0402488
0.0407605
0.0415116
0.0441753
0.0498542
0.05253
0.0605186
0.143774
0.217491
0.214741
0.141323
0.0592337
0.0516893
0.050581
0.0455622
0.0421449
0.0407852
0.0395579
0.0384614
0.0371812
0.0354713
0.0347317
0.0360388
0.0380619
0.0391555
0.0397885
0.0405926
0.0416964
0.0451275
0.0509758
0.052356
0.0610944
0.146521
0.216728
0.214022
0.1437
0.0592473
0.0511518
0.0505786
0.0468878
0.0425242
0.0407648
0.0392065
0.0379445
0.0366551
0.0349938
0.0342863
0.0355286
0.0374881
0.0386171
0.039431
0.0406029
0.0420833
0.0463573
0.0510189
0.0517983
0.0609368
0.148458
0.216573
0.213513
0.146194
0.0603018
0.0506491
0.0502064
0.0486202
0.0432365
0.0408297
0.0390406
0.0375554
0.0362053
0.0345469
0.0338701
0.0350548
0.036983
0.038182
0.0392418
0.0407287
0.0428626
0.0483436
0.0506981
0.0512258
0.0613073
0.150695
0.215905
0.213305
0.14842
0.060292
0.0501094
0.0495969
0.0495242
0.0445245
0.041083
0.0389722
0.0372966
0.0358149
0.034151
0.0334986
0.0346537
0.0365969
0.0378984
0.0391877
0.041036
0.0443675
0.0495616
0.0501307
0.0508596
0.0625243
0.153001
0.215466
0.212381
0.150446
0.0614764
0.0498169
0.0489228
0.0492133
0.0466875
0.041762
0.0390471
0.0372151
0.0355816
0.0338569
0.0331889
0.0343274
0.0363241
0.037782
0.0392352
0.0417095
0.0465273
0.0493314
0.0494455
0.050419
0.0630423
0.155013
0.215123
0.211312
0.15252
0.0630803
0.0497511
0.0483451
0.0487177
0.0479498
0.0434113
0.039289
0.0371771
0.0354866
0.0336877
0.032927
0.0341312
0.0361924
0.0377484
0.0394437
0.0433096
0.0479865
0.0488386
0.0488137
0.0501967
0.0638876
0.156882
0.214082
0.209297
0.153759
0.0638262
0.0496557
0.0478568
0.0480594
0.0476851
0.045694
0.0400801
0.0372282
0.0354526
0.0336237
0.0327964
0.0340596
0.0361592
0.0378196
0.0402493
0.045739
0.0478521
0.0481708
0.0483102
0.0502665
0.0655376
0.158171
0.21177
0.205868
0.15386
0.0647772
0.0497493
0.0474695
0.0473424
0.0472527
0.0472359
0.04185
0.0375341
0.0355054
0.0336219
0.0327892
0.0340455
0.0361813
0.0380876
0.0419331
0.0474969
0.0474337
0.0474169
0.0478701
0.0503037
0.0661206
0.158261
0.208436
0.196965
0.150709
0.0655798
0.0498426
0.0471819
0.0467428
0.0466958
0.0470722
0.0444656
0.0386534
0.0357237
0.0336695
0.0328087
0.0340784
0.0363435
0.0390929
0.0445787
0.0474636
0.0468864
0.0467901
0.0475094
0.0503104
0.0664474
0.15493
0.199505
0.386599
1.58245
2.10288
2.07368
1.85967
1.64299
1.45933
1.299
1.14511
0.989744
0.835871
0.698327
0.588476
0.511244
0.459517
0.426421
0.403153
0.385426
0.371497
0.358613
0.344554
0.331312
0.316017
0.298703
0.27921
0.256838
0.230003
0.194933
0.147958
0.106967
0.371518
1.66422
2.16348
2.09911
1.8709
1.6527
1.47066
1.31325
1.16401
1.01423
0.865647
0.729942
0.617008
0.532682
0.47454
0.435543
0.408482
0.388349
0.371541
0.356162
0.342591
0.327631
0.311721
0.294277
0.274551
0.252151
0.225302
0.190415
0.144488
0.105587
0.397687
1.83045
2.22928
2.12836
1.89
1.67098
1.49123
1.33642
1.19065
1.0446
0.89865
0.763476
0.645718
0.554209
0.488223
0.442135
0.410597
0.387352
0.368448
0.351636
0.337157
0.321738
0.305897
0.288288
0.268918
0.2469
0.220255
0.18564
0.140989
0.104113
0.418679
1.91463
2.29627
2.17615
1.92805
1.70577
1.52685
1.37386
1.2312
1.08932
0.945014
0.80733
0.683778
0.583222
0.507376
0.453272
0.415873
0.388366
0.36696
0.349194
0.333279
0.317483
0.301297
0.283515
0.264363
0.242361
0.215796
0.181311
0.137871
0.102891
0.426805
1.98667
2.37329
2.23849
1.98036
1.75465
1.57617
1.42512
1.28539
1.14481
1.00132
0.860507
0.730243
0.619242
0.532269
0.468818
0.424236
0.391874
0.367159
0.347473
0.330155
0.313885
0.297086
0.279741
0.260489
0.238501
0.211728
0.177368
0.135111
0.101768
0.434635
2.06638
2.4577
2.31031
2.04204
1.81309
1.63523
1.48572
1.34857
1.21003
1.06652
0.922885
0.785919
0.664318
0.565633
0.491311
0.437775
0.398892
0.369878
0.347215
0.328401
0.311039
0.294127
0.276625
0.257131
0.235106
0.208108
0.173858
0.13261
0.100935
0.444228
2.14978
2.54727
2.3911
2.11372
1.88135
1.70317
1.55595
1.42133
1.28467
1.14149
0.995363
0.851879
0.720382
0.609404
0.52241
0.457667
0.410187
0.375208
0.349072
0.327865
0.308763
0.291643
0.273915
0.254133
0.231806
0.204663
0.170549
0.13034
0.100212
0.454789
2.23539
2.64273
2.48086
2.1956
1.95863
1.78071
1.63575
1.50349
1.36886
1.22657
1.07879
0.930384
0.790046
0.666389
0.564765
0.486082
0.427462
0.384537
0.353198
0.328552
0.30801
0.289846
0.271386
0.251494
0.228667
0.201464
0.167446
0.128292
0.0995612
0.465262
2.32128
2.74495
2.58085
2.28947
2.04686
1.86872
1.7252
1.59499
1.46261
1.32173
1.17358
1.02209
0.87379
0.73738
0.619746
0.524519
0.451946
0.398524
0.359888
0.331204
0.308457
0.288871
0.269559
0.249053
0.225839
0.198339
0.164231
0.12634
0.0989871
0.474267
2.40723
2.85326
2.69175
2.39626
2.14752
1.96728
1.82424
1.69537
1.56506
1.42545
1.27782
1.12444
0.969503
0.821502
0.687879
0.574686
0.485323
0.418446
0.371105
0.336831
0.310651
0.288878
0.268431
0.246988
0.223239
0.195111
0.161514
0.124501
0.0983866
0.48246
2.49158
2.96704
2.81291
2.51516
2.26041
2.07625
1.93205
1.80432
1.67599
1.53787
1.39076
1.23514
1.07481
0.917375
0.769253
0.638015
0.529745
0.447369
0.388275
0.345858
0.314663
0.290043
0.26802
0.245445
0.220863
0.192501
0.159056
0.123092
0.0979656
0.490163
2.57684
3.08581
2.94212
2.64427
2.38425
2.19464
2.04826
1.92139
1.79462
1.65812
1.51212
1.35503
1.19053
1.02504
0.864114
0.715836
0.588029
0.487486
0.41312
0.359669
0.321473
0.292649
0.268088
0.244282
0.218956
0.190367
0.15707
0.121933
0.0977029
0.498916
2.66361
3.20691
3.0772
2.7811
2.51632
2.32098
2.1721
2.04551
1.91988
1.78612
1.64128
1.48375
1.31643
1.14384
0.971862
0.808245
0.661615
0.540207
0.447327
0.379443
0.331706
0.297138
0.269348
0.243964
0.217773
0.188768
0.155554
0.120978
0.0975339
0.506662
2.75312
3.32806
3.2165
2.92337
2.65396
2.45315
2.30164
2.17521
2.05103
1.92099
1.77781
1.62017
1.45032
1.2724
1.09175
0.91447
0.750438
0.607026
0.492341
0.406497
0.346256
0.304248
0.272179
0.244696
0.217293
0.187793
0.154537
0.120276
0.0974794
0.514029
2.83947
3.44629
3.3556
3.06872
2.79548
2.58962
2.43631
2.30931
2.18812
2.06162
1.92065
1.76327
1.59215
1.41048
1.22273
1.03377
0.853204
0.688556
0.549743
0.442949
0.366722
0.314656
0.277099
0.246611
0.217626
0.187434
0.153744
0.119841
0.097582
0.519726
2.91903
3.56026
3.49217
3.2149
2.93936
2.7299
2.57535
2.44847
2.33019
2.20742
2.06922
1.9135
1.7426
1.55818
1.36434
1.1654
0.969454
0.785383
0.622121
0.49145
0.395265
0.33009
0.284921
0.24995
0.218842
0.187223
0.153079
0.119329
0.0977308
0.526065
2.98942
3.66755
3.62155
3.35797
3.08373
2.87398
2.71895
2.59241
2.477
2.35728
2.22266
2.07071
1.90032
1.71397
1.5153
1.3082
1.09932
0.897154
0.710673
0.553473
0.433938
0.351957
0.296046
0.255201
0.221089
0.1877
0.152782
0.118889
0.0979201
0.531779
3.05033
3.76502
3.74021
3.49386
3.22765
3.02138
2.86714
2.74113
2.62765
2.51053
2.3804
2.23296
2.0641
1.87714
1.67511
1.46135
1.24196
1.0234
0.815678
0.631616
0.485219
0.38166
0.31165
0.26308
0.224773
0.189005
0.152919
0.118716
0.0982614
0.536022
3.097
3.84357
3.84419
3.61854
3.3699
3.1716
3.0188
2.89386
2.78263
2.66838
2.5425
2.3992
2.2326
2.04589
1.84192
1.62293
1.39398
1.1613
0.935221
0.725566
0.550486
0.420925
0.332985
0.273933
0.230085
0.19125
0.153458
0.1187
0.0985411
0.538318
3.12886
3.89507
3.92663
3.72843
3.50692
3.32252
3.17383
3.0508
2.94217
2.83151
2.70955
2.56989
2.40577
2.21942
2.01375
1.79041
1.55283
1.30841
1.06542
0.834204
0.630388
0.471154
0.361216
0.288407
0.237287
0.194593
0.154586
0.11885
0.0988793
0.541388
3.13612
3.91154
3.97742
3.81913
3.63571
3.47293
3.3313
3.21198
3.10705
3.00085
2.88275
2.74647
2.58431
2.39814
2.19003
1.96219
1.71663
1.46176
1.20438
0.954559
0.724208
0.534123
0.397537
0.307175
0.246368
0.198711
0.155998
0.119042
0.0992151
0.542592
3.12075
3.8813
3.98362
3.88417
3.75186
3.61907
3.49007
3.37824
3.27917
3.17789
3.06399
2.93037
2.76952
2.58295
2.37145
2.13829
1.88519
1.62078
1.35164
1.0836
0.829817
0.609734
0.443236
0.331027
0.257474
0.203401
0.157682
0.119213
0.0995245
0.545303
3.05088
3.77596
3.92153
3.91035
3.84849
3.75766
3.64906
3.54937
3.45841
3.36308
3.25403
3.12285
2.96264
2.77477
2.5587
2.31962
2.05939
1.78618
1.5059
1.22084
0.946957
0.698781
0.500582
0.362103
0.27229
0.209751
0.160163
0.119545
0.0998466
0.541634
2.86545
3.52637
3.76531
3.88656
3.91795
3.88312
3.80524
3.72371
3.64386
3.55623
3.45279
3.32422
3.16447
2.97372
2.75191
2.50659
2.23958
1.9569
1.66485
1.36596
1.07535
0.802516
0.572013
0.402991
0.292142
0.218709
0.163826
0.12031
0.100202
0.528236
2.2652
2.93866
3.43313
3.78058
3.94485
3.98615
3.95273
3.89767
3.83364
3.75648
3.66002
3.53434
3.37416
3.17866
2.95044
2.69769
2.42346
2.13175
1.82966
1.52009
1.21356
0.918733
0.65762
0.454786
0.317964
0.230607
0.168729
0.121583
0.100593
0.106689
0.147785
0.195065
0.230295
0.257516
0.280208
0.300011
0.316793
0.331726
0.346276
0.358668
0.371752
0.386125
0.402992
0.425552
0.459516
0.511721
0.591147
0.703418
0.843507
0.998672
1.15506
1.30922
1.47054
1.65834
1.88377
2.10382
2.12748
1.5938
0.388494
0.105207
0.144098
0.190044
0.225555
0.252688
0.275533
0.295421
0.312863
0.328347
0.343007
0.357415
0.371962
0.388593
0.4086
0.435329
0.474061
0.532078
0.616106
0.730507
0.867177
1.01714
1.1679
1.31827
1.47842
1.66519
1.89124
2.12605
2.18731
1.67522
0.373433
0.103773
0.140441
0.185239
0.22034
0.247367
0.269757
0.289471
0.307156
0.322468
0.337242
0.352762
0.368774
0.387627
0.410993
0.442507
0.487409
0.552311
0.64333
0.760402
0.895822
1.04216
1.18937
1.33694
1.49487
1.6788
1.90411
2.15014
2.25399
1.843
0.399463
0.102651
0.137396
0.181055
0.215889
0.243019
0.265436
0.285029
0.302695
0.318339
0.333553
0.349856
0.367861
0.389262
0.416439
0.453573
0.506288
0.58032
0.679958
0.802123
0.938402
1.08152
1.22475
1.36909
1.52439
1.70864
1.93692
2.19321
2.31751
1.9268
0.420721
0.101662
0.134871
0.177197
0.211823
0.239168
0.261645
0.281231
0.298805
0.315067
0.330937
0.348384
0.368224
0.39265
0.424371
0.467988
0.529732
0.614595
0.723855
0.852624
0.991531
1.13492
1.27571
1.41718
1.56961
1.75347
1.9874
2.25258
2.39106
1.9976
0.428665
0.100823
0.132584
0.173819
0.20821
0.235614
0.258415
0.27799
0.295649
0.312855
0.329787
0.34873
0.371139
0.399575
0.437335
0.489219
0.561117
0.657562
0.776931
0.912371
1.05469
1.19759
1.33725
1.47643
1.62795
1.80974
2.04678
2.32099
2.47177
2.07609
0.43616
0.100063
0.13045
0.1708
0.205062
0.232442
0.255358
0.275189
0.293204
0.311032
0.329399
0.350636
0.37658
0.410432
0.456228
0.518679
0.602634
0.710971
0.840349
0.982267
1.12757
1.27022
1.40768
1.54384
1.69295
1.87519
2.11667
2.40001
2.55847
2.15859
0.446356
0.0993852
0.128547
0.167981
0.202182
0.229803
0.252605
0.273002
0.291498
0.310347
0.330513
0.35458
0.385333
0.42668
0.483217
0.559071
0.657359
0.778269
0.916601
1.06382
1.21133
1.35341
1.48836
1.6212
1.76847
1.95218
2.19761
2.48786
2.65286
2.24345
0.456464
0.0986308
0.126829
0.165256
0.199234
0.227186
0.250393
0.271176
0.290585
0.310864
0.333272
0.361078
0.398178
0.44959
0.519751
0.611762
0.726284
0.86051
1.00723
1.15783
1.30606
1.44706
1.5795
1.70962
1.85508
2.03913
2.29059
2.58681
2.75313
2.32995
0.467367
0.0981913
0.125241
0.1627
0.196661
0.22474
0.248709
0.270051
0.290652
0.312689
0.338683
0.371829
0.417432
0.481415
0.567787
0.677656
0.8089
0.955773
1.11005
1.26285
1.41035
1.55003
1.6804
1.80863
1.95298
2.13884
2.39631
2.69627
2.8605
2.41576
0.476655
0.097745
0.123881
0.160477
0.194377
0.22273
0.247454
0.269665
0.291828
0.316485
0.347295
0.388338
0.445141
0.524476
0.629299
0.757403
0.903782
1.06098
1.22117
1.37591
1.52257
1.66022
1.78891
1.91646
2.06153
2.25088
2.51386
2.81545
2.97261
2.49989
0.484832
0.0974036
0.12266
0.158623
0.192349
0.221224
0.246522
0.270371
0.294645
0.323075
0.360396
0.412165
0.483704
0.581325
0.70587
0.85161
1.01104
1.17655
1.34113
1.49764
1.64341
1.77891
1.90543
2.03204
2.1799
2.3739
2.64177
2.94306
3.08961
2.58485
0.49327
0.0972838
0.121793
0.157225
0.190891
0.220174
0.246353
0.271744
0.299369
0.333147
0.379585
0.445078
0.535232
0.653631
0.797921
0.959796
1.1307
1.30346
1.47125
1.62857
1.77309
1.90564
2.03002
2.15623
2.30688
2.50653
2.77877
3.07803
3.21067
2.67099
0.501956
0.0972804
0.121247
0.156286
0.189959
0.219725
0.247267
0.274544
0.306206
0.347407
0.406017
0.489041
0.601078
0.741885
0.904851
1.08094
1.2615
1.43969
1.60971
1.7674
1.91048
2.0398
2.16141
2.28638
2.43983
2.64537
2.92175
3.21773
3.33264
2.76067
0.509966
0.0972775
0.120707
0.155396
0.189764
0.220089
0.249213
0.279212
0.316241
0.367045
0.441142
0.545206
0.681631
0.845162
1.0255
1.21454
1.40232
1.58401
1.75526
1.91273
2.05376
2.17996
2.29885
2.42314
2.57761
2.78872
3.06811
3.35782
3.45219
2.8498
0.517635
0.0973514
0.120259
0.154909
0.189587
0.221457
0.252272
0.28625
0.33049
0.393866
0.48706
0.615312
0.777199
0.961866
1.15853
1.35838
1.55263
1.73706
1.90783
2.06333
2.20139
2.32392
2.44017
2.56478
2.71961
2.9344
3.21556
3.49536
3.56692
2.93137
0.523787
0.0976322
0.120053
0.154843
0.189987
0.223367
0.257055
0.296475
0.350503
0.430211
0.54613
0.701035
0.887252
1.09054
1.30175
1.51043
1.71032
1.89681
2.06654
2.21777
2.35204
2.47132
2.58447
2.70943
2.86453
3.08042
3.36073
3.62685
3.6756
3.00349
0.530379
0.097946
0.119902
0.154921
0.191264
0.226471
0.264115
0.310439
0.377401
0.477563
0.619891
0.80225
1.01065
1.23036
1.45349
1.66915
1.87272
2.0605
2.22929
2.37567
2.50481
2.62137
2.73319
2.85712
3.01238
3.22561
3.49918
3.74845
3.77526
3.06655
0.536549
0.0982673
0.119748
0.155317
0.193136
0.230975
0.273175
0.329273
0.412878
0.537637
0.708705
0.917106
1.14466
1.37957
1.61133
1.83253
2.03854
2.22662
2.39401
2.53693
2.6615
2.77519
2.8854
3.00886
3.16271
3.36875
3.62659
3.85584
3.85716
3.11526
0.541062
0.0985855
0.11947
0.155792
0.195488
0.236992
0.285518
0.354074
0.458359
0.611158
0.811377
1.04228
1.28594
1.53368
1.77339
1.99939
2.20767
2.39547
2.56142
2.70183
2.82253
2.93291
3.04126
3.1639
3.31495
3.50664
3.73886
3.94222
3.91309
3.14935
0.543609
0.0988442
0.119211
0.156389
0.198442
0.244243
0.301428
0.385837
0.514461
0.697463
0.924857
1.17485
1.4332
1.69073
1.93847
2.16949
2.38064
2.56862
2.73356
2.87167
2.98997
3.09642
3.20126
3.32062
3.46523
3.63711
3.83216
3.9969
3.93385
3.15958
0.546966
0.0991228
0.119387
0.157887
0.202501
0.253521
0.321719
0.425741
0.582272
0.794337
1.04552
1.31337
1.58507
1.85139
2.10736
2.34404
2.55909
2.74838
2.91247
3.04969
3.1648
3.26713
3.36673
3.47944
3.61206
3.75439
3.89973
4.00781
3.9077
3.14623
0.548495
0.0994267
0.119968
0.16047
0.208437
0.266275
0.348141
0.475741
0.662281
0.902528
1.17325
1.45725
1.74037
2.01618
2.28063
2.52391
2.74426
2.93612
3.09985
3.23682
3.34892
3.4455
3.53759
3.63899
3.75181
3.85296
3.92912
3.95054
3.806
3.07809
0.551409
0.0997493
0.12083
0.163757
0.216341
0.283119
0.382459
0.537739
0.755511
1.02087
1.30828
1.60604
1.90023
2.18611
2.45901
2.70998
2.93697
3.13282
3.29686
3.43293
3.54153
3.63079
3.71228
3.79615
3.87898
3.92489
3.90798
3.79747
3.55867
2.8919
0.548035
0.100107
0.121915
0.16772
0.226148
0.304526
0.425636
0.612174
0.860382
1.14854
1.45129
1.76114
2.06623
2.3626
2.64403
2.90351
3.13796
3.33986
3.50541
3.63784
3.74221
3.82109
3.88736
3.94535
3.9845
3.95522
3.80585
3.46952
2.97449
2.28482
0.534855
0.458184
0.46713
0.478084
0.491099
0.505164
0.52002
0.535524
0.551368
0.567299
0.583111
0.598608
0.613659
0.628205
0.642211
0.655663
0.66854
0.680827
0.692544
0.703767
0.714588
0.725067
0.735297
0.745371
0.755303
0.765113
0.774647
0.783719
0.79239
0.800704
0.808624
0.816117
0.823163
0.829741
0.835844
0.84148
0.846651
0.85134
0.855623
0.859802
0.863707
0.867242
0.870232
0.872597
0.874253
0.875114
0.875052
0.874081
0.872295
0.869469
0.865521
0.8604
0.854203
0.847024
0.83878
0.829454
0.819061
0.807692
0.795416
0.782229
0.768107
0.753027
0.737005
0.720059
0.702208
0.683561
0.664441
0.64535
0.626101
0.606752
0.587337
0.567898
0.54848
0.529145
0.509947
0.490936
0.47215
0.453643
0.435437
0.417517
0.399968
0.382872
0.366294
0.350355
0.335046
0.320214
0.305763
0.291649
0.277863
0.264396
0.251217
0.238304
0.225624
0.213155
0.200921
0.188999
0.177496
0.166505
0.156129
0.14654
0.137865
0.130204
0.123623
0.118143
0.113711
0.11023
0.107575
0.105598
0.104262
0.103352
0.102771
0.102426
0.10229
0.102271
0.102341
0.102459
0.102594
0.10269
0.10268
0.102565
0.102352
0.10205
0.101701
0.10134
0.101097
0.100587
4.79075
4.81487
4.86611
4.94586
5.03621
5.13676
5.24422
5.35832
5.47715
5.59907
5.72182
5.84364
5.96398
6.08246
6.19897
6.31326
6.42482
6.53321
6.63872
6.74214
6.84362
6.94187
7.03499
7.12309
7.20579
7.28322
7.35572
7.42372
7.48738
7.54672
7.60186
7.65295
7.70017
7.74372
7.78368
7.81996
7.8523
7.88046
7.90415
7.92317
7.93714
7.94646
7.95075
7.94955
7.94252
7.92957
7.90779
7.87811
7.84056
7.79479
7.74051
7.6772
7.6073
7.53004
7.44537
7.35331
7.25397
7.14798
7.03489
6.91427
6.78578
6.64918
6.50399
6.34884
6.18108
5.99625
5.78978
5.57156
5.35124
5.13041
4.90968
4.69002
4.47212
4.2571
4.04582
3.83921
3.63866
3.44609
3.26209
3.08779
2.92621
2.77908
2.64537
2.52215
2.40721
2.29999
2.19937
2.10444
2.01397
1.92601
1.83881
1.75051
1.65961
1.56532
1.46753
1.36651
1.26309
1.15798
1.05255
0.948492
0.847688
0.751849
0.662378
0.580383
0.506064
0.440437
0.382905
0.333685
0.292145
0.257247
0.228819
0.206021
0.188041
0.173874
0.162685
0.154227
0.148281
0.144046
0.140291
0.136551
0.132939
0.129708
0.127137
0.125356
0.123426
8.37765
8.44073
8.54399
8.68157
8.84035
9.01381
9.19681
9.38589
9.57767
9.7692
9.95794
10.1421
10.321
10.494
10.6611
10.8219
10.9766
11.125
11.2678
11.4054
11.5378
11.664
11.7828
11.8936
11.996
12.0903
12.1769
12.2562
12.3284
12.3939
12.4527
12.5053
12.5519
12.5927
12.6279
12.6574
12.6812
12.6994
12.7117
12.7176
12.7167
12.7089
12.6935
12.6701
12.6379
12.5966
12.5449
12.4824
12.4095
12.3259
12.2315
12.1253
12.0091
11.8834
11.7475
11.6011
11.444
11.2773
11.1003
10.9124
10.7133
10.5029
10.2812
10.0477
9.80173
9.54297
9.27191
8.98907
8.69302
8.38657
8.07509
7.76222
7.44969
7.13934
6.83211
6.52918
6.23197
5.94203
5.66026
5.38805
5.12725
4.87939
4.64472
4.42268
4.21172
4.01069
3.81882
3.63526
3.45865
3.28805
3.12202
2.95957
2.79967
2.6419
2.48635
2.33313
2.18266
2.03497
1.89049
1.74967
1.6129
1.48046
1.35248
1.22941
1.11118
0.999018
0.892578
0.793515
0.702154
0.618348
0.543835
0.478643
0.422304
0.374139
0.333469
0.300087
0.273742
0.252992
0.235348
0.219599
0.205847
0.194436
0.185359
0.178536
0.172848
10.9218
11.0167
11.1611
11.3414
11.5463
11.7665
11.9951
12.2269
12.4575
12.6835
12.9025
13.1129
13.3141
13.506
13.6884
13.8618
14.0262
14.1824
14.3308
14.4718
14.6052
14.7293
14.8441
14.9488
15.0434
15.1287
15.2051
15.2732
15.3334
15.3861
15.4316
15.4701
15.5019
15.5271
15.546
15.5588
15.5655
15.5663
15.5608
15.5488
15.5298
15.5034
15.4692
15.4266
15.375
15.3137
15.2423
15.1604
15.0682
14.9657
14.8529
14.7293
14.5954
14.4514
14.2973
14.1322
13.9545
13.7666
13.5682
13.3582
13.1362
12.9018
12.6562
12.3987
12.1291
11.8478
11.555
11.2508
10.9356
10.6095
10.2731
9.92681
9.57505
9.2229
8.87139
8.522
8.17685
7.83732
7.50474
7.18062
6.86633
6.56292
6.27078
5.98995
5.72002
5.46038
5.2106
4.9701
4.738
4.51368
4.29629
4.08484
3.879
3.67828
3.48282
3.29241
3.10713
2.92672
2.75125
2.58063
2.41485
2.25381
2.09712
1.94482
1.79653
1.65304
1.51386
1.38024
1.2517
1.12819
1.01192
0.903717
0.803372
0.711324
0.629175
0.558036
0.497415
0.445544
0.400023
0.359124
0.32358
0.294511
0.271615
0.253297
0.238237
12.9656
13.0779
13.2422
13.4425
13.6676
13.9067
14.1517