/*--------------------------------*- C++ -*----------------------------------*\
| =========                 |                                                 |
| \\      /  F ield         | OpenFOAM: The Open Source CFD Toolbox           |
|  \\    /   O peration     | Version:  2112                                  |
|   \\  /    A nd           | Website:  www.openfoam.com                      |
|    \\/     M anipulation  |                                                 |
\*---------------------------------------------------------------------------*/
FoamFile
{
    version     2.0;
    format      ascii;
    arch        "LSB;label=32;scalar=64";
    class       volScalarField;
    location    "0.0045";
    object      epsilon;
}
// * * * * * * * * * * * * * * * * * * * * * * * * * * * * * * * * * * * * * //

dimensions      [0 2 -3 0 0 0 0];

internalField   nonuniform List<scalar> 
13875
(
1.15998e+06
2.94619e+07
3.28149e+07
3.28381e+07
3.29601e+07
3.28743e+07
3.28841e+07
3.28673e+07
3.2917e+07
3.29408e+07
3.29228e+07
3.29081e+07
3.28743e+07
3.28423e+07
3.28548e+07
3.29229e+07
3.29804e+07
3.28982e+07
3.2884e+07
3.28275e+07
3.29416e+07
3.28324e+07
3.28013e+07
2.94722e+07
1.17793e+06
1.31392e+06
2.2747e+07
2.53492e+07
2.52347e+07
2.53058e+07
2.52243e+07
2.52185e+07
2.51999e+07
2.52288e+07
2.52347e+07
2.52566e+07
2.52488e+07
2.52159e+07
2.51955e+07
2.51977e+07
2.52574e+07
2.52609e+07
2.52307e+07
2.52335e+07
2.52002e+07
2.52922e+07
2.52171e+07
2.5324e+07
2.27455e+07
1.34258e+06
1.5731e+06
1.97061e+07
2.1824e+07
2.16207e+07
2.16952e+07
2.16321e+07
2.16207e+07
2.15968e+07
2.15838e+07
2.15393e+07
2.15498e+07
2.15544e+07
2.16153e+07
2.16064e+07
2.15966e+07
2.15634e+07
2.15511e+07
2.15499e+07
2.16346e+07
2.16229e+07
2.16952e+07
2.15965e+07
2.17846e+07
1.96829e+07
1.58515e+06
1.81385e+06
1.73847e+07
1.90334e+07
1.88754e+07
1.89619e+07
1.891e+07
1.88977e+07
1.88758e+07
1.88625e+07
1.88079e+07
1.87909e+07
1.87987e+07
1.88908e+07
1.88835e+07
1.88757e+07
1.88079e+07
1.88176e+07
1.8803e+07
1.8906e+07
1.88999e+07
1.89617e+07
1.88538e+07
1.90093e+07
1.73621e+07
1.82106e+06
2.02295e+06
1.54519e+07
1.67679e+07
1.66174e+07
1.66953e+07
1.66521e+07
1.66415e+07
1.66225e+07
1.66076e+07
1.65592e+07
1.65352e+07
1.65406e+07
1.6634e+07
1.66294e+07
1.6621e+07
1.65485e+07
1.65671e+07
1.65454e+07
1.66461e+07
1.66469e+07
1.66972e+07
1.66014e+07
1.67399e+07
1.54301e+07
2.03689e+06
2.20664e+06
1.37118e+07
1.49237e+07
1.47348e+07
1.48194e+07
1.4776e+07
1.47609e+07
1.47411e+07
1.47223e+07
1.46797e+07
1.4647e+07
1.46516e+07
1.47486e+07
1.47473e+07
1.47375e+07
1.46582e+07
1.46868e+07
1.46575e+07
1.47594e+07
1.4777e+07
1.48241e+07
1.47262e+07
1.48987e+07
1.38491e+07
2.22274e+06
2.42266e+06
1.22502e+07
1.34733e+07
1.32035e+07
1.32561e+07
1.32044e+07
1.3182e+07
1.31602e+07
1.31364e+07
1.30994e+07
1.30552e+07
1.30607e+07
1.31622e+07
1.31648e+07
1.31513e+07
1.30674e+07
1.31059e+07
1.30727e+07
1.3176e+07
1.32097e+07
1.32617e+07
1.31985e+07
1.34182e+07
1.19524e+07
2.42904e+06
2.6663e+06
1.06151e+07
1.23086e+07
1.19722e+07
1.19871e+07
1.19074e+07
1.18649e+07
1.18326e+07
1.18e+07
1.17696e+07
1.17124e+07
1.17162e+07
1.18233e+07
1.18325e+07
1.18151e+07
1.17245e+07
1.17755e+07
1.17388e+07
1.1846e+07
1.19115e+07
1.19896e+07
1.19696e+07
1.22581e+07
1.05388e+07
2.69406e+06
3.4962e+06
1.0208e+07
1.14793e+07
1.10307e+07
1.09375e+07
1.08327e+07
1.07716e+07
1.07255e+07
1.06852e+07
1.06564e+07
1.05894e+07
1.05906e+07
1.07026e+07
1.07192e+07
1.06984e+07
1.06042e+07
1.06629e+07
1.06238e+07
1.07343e+07
1.08349e+07
1.09502e+07
1.10265e+07
1.14748e+07
1.03378e+07
3.57556e+06
6.83043e+06
1.22122e+07
1.11913e+07
1.04098e+07
1.02101e+07
1.0034e+07
9.94575e+06
9.88358e+06
9.83887e+06
9.80202e+06
9.73483e+06
9.73304e+06
9.84545e+06
9.86922e+06
9.84737e+06
9.76145e+06
9.81193e+06
9.78514e+06
9.8827e+06
1.00179e+07
1.0204e+07
1.03995e+07
1.11641e+07
1.2116e+07
6.88195e+06
1.49057e+07
1.8658e+07
1.20619e+07
1.03928e+07
9.76493e+06
9.5091e+06
9.38118e+06
9.29635e+06
9.24543e+06
9.19836e+06
9.13874e+06
9.13261e+06
9.24099e+06
9.27098e+06
9.25466e+06
9.18917e+06
9.22238e+06
9.21443e+06
9.30284e+06
9.46263e+06
9.75231e+06
1.03681e+07
1.19568e+07
1.80091e+07
1.50213e+07
2.53635e+07
6.77377e+07
1.85699e+07
1.08892e+07
9.98078e+06
9.38722e+06
9.11502e+06
8.98433e+06
8.91187e+06
8.85701e+06
8.80745e+06
8.79925e+06
8.89281e+06
8.928e+06
8.92262e+06
8.88445e+06
8.90998e+06
8.92754e+06
9.03569e+06
9.33074e+06
9.88446e+06
1.07063e+07
1.78581e+07
6.71129e+07
2.50088e+07
2.6586e+07
7.17188e+07
8.94281e+07
2.68278e+07
1.16149e+07
9.80164e+06
9.36984e+06
9.21817e+06
9.11166e+06
9.04989e+06
9.00844e+06
9.00377e+06
9.07495e+06
9.1118e+06
9.12018e+06
9.11198e+06
9.1518e+06
9.21663e+06
9.34954e+06
9.7666e+06
1.20123e+07
2.52117e+07
8.37459e+07
7.21676e+07
2.60871e+07
2.6334e+07
5.25711e+07
8.06576e+07
1.14596e+08
5.66799e+07
1.56403e+07
1.20365e+07
1.09035e+07
1.0548e+07
1.04161e+07
1.03501e+07
1.03446e+07
1.03935e+07
1.0433e+07
1.04601e+07
1.04996e+07
1.0623e+07
1.09647e+07
1.21764e+07
1.69829e+07
6.64766e+07
9.91428e+07
7.58303e+07
5.22852e+07
2.58642e+07
2.55988e+07
4.17058e+07
5.94641e+07
7.96055e+07
6.95579e+07
6.27682e+07
5.5137e+07
3.3216e+07
3.41836e+07
3.46196e+07
3.46493e+07
3.4434e+07
3.46574e+07
3.47034e+07
3.47528e+07
3.46025e+07
3.42173e+07
3.37172e+07
5.8069e+07
6.80972e+07
7.14857e+07
7.20168e+07
5.74245e+07
4.14494e+07
2.68856e+07
2.57709e+07
3.41324e+07
4.84137e+07
6.46996e+07
6.63036e+07
7.06505e+07
6.15143e+07
4.49487e+07
4.91091e+07
5.36934e+07
5.41718e+07
5.39575e+07
5.42388e+07
5.46771e+07
5.43464e+07
5.3795e+07
4.89784e+07
4.38113e+07
6.20433e+07
7.34336e+07
6.72942e+07
6.00855e+07
4.70513e+07
3.38616e+07
2.69976e+07
2.26162e+07
2.89752e+07
4.16352e+07
5.48251e+07
5.78089e+07
6.13656e+07
5.61135e+07
4.24888e+07
3.54371e+07
3.57679e+07
3.60704e+07
3.60426e+07
3.62025e+07
3.6407e+07
3.62583e+07
3.60111e+07
3.60116e+07
4.27621e+07
5.50589e+07
6.24963e+07
5.85721e+07
5.25532e+07
4.0262e+07
2.78964e+07
2.23373e+07
1.77903e+07
2.58171e+07
4.00765e+07
4.52696e+07
4.57087e+07
5.11647e+07
4.81502e+07
3.86254e+07
2.99194e+07
2.66244e+07
2.58865e+07
2.57144e+07
2.58272e+07
2.59996e+07
2.62776e+07
2.73037e+07
3.1e+07
3.89309e+07
4.64242e+07
5.006e+07
4.54616e+07
4.42129e+07
3.99279e+07
2.52213e+07
1.7282e+07
1.41557e+07
2.5856e+07
3.65263e+07
3.7938e+07
3.67759e+07
3.92303e+07
3.89365e+07
3.49427e+07
2.83672e+07
2.30849e+07
2.06465e+07
1.98342e+07
1.97844e+07
1.99853e+07
2.07428e+07
2.30258e+07
2.82385e+07
3.43911e+07
3.75124e+07
3.8315e+07
3.6289e+07
3.73386e+07
3.64935e+07
2.60177e+07
1.38154e+07
1.30132e+07
2.89795e+07
3.19913e+07
3.14243e+07
3.025e+07
3.14287e+07
3.20286e+07
3.06909e+07
2.64214e+07
2.09627e+07
1.74322e+07
1.60581e+07
1.5862e+07
1.62237e+07
1.75827e+07
2.09162e+07
2.61136e+07
3.00263e+07
3.10098e+07
3.08255e+07
3.01085e+07
3.12997e+07
3.18431e+07
2.86861e+07
1.30262e+07
1.56335e+07
2.42799e+07
2.60644e+07
2.57857e+07
2.49993e+07
2.58389e+07
2.65652e+07
2.63255e+07
2.35007e+07
1.86247e+07
1.48608e+07
1.32191e+07
1.29486e+07
1.3454e+07
1.5187e+07
1.87932e+07
2.32709e+07
2.57153e+07
2.58471e+07
2.55375e+07
2.51193e+07
2.5893e+07
2.60953e+07
2.40595e+07
1.55169e+07
2.41972e+07
2.89955e+07
2.19428e+07
2.15078e+07
2.10024e+07
2.16935e+07
2.22236e+07
2.2421e+07
2.04915e+07
1.62806e+07
1.26803e+07
1.09988e+07
1.06786e+07
1.12198e+07
1.2998e+07
1.64374e+07
2.02309e+07
2.18299e+07
2.16426e+07
2.15095e+07
2.12134e+07
2.16062e+07
2.20404e+07
3.02688e+07
2.46469e+07
2.68796e+07
3.30913e+07
1.89684e+07
1.8002e+07
1.78167e+07
1.82955e+07
1.86583e+07
1.90507e+07
1.76315e+07
1.40439e+07
1.07975e+07
9.21261e+06
8.87717e+06
9.36078e+06
1.0992e+07
1.40854e+07
1.73293e+07
1.84831e+07
1.80889e+07
1.80634e+07
1.79531e+07
1.80607e+07
1.89322e+07
3.49448e+07
2.72654e+07
2.60164e+07
3.24883e+07
1.64065e+07
1.53612e+07
1.51272e+07
1.53388e+07
1.57099e+07
1.62006e+07
1.50468e+07
1.18979e+07
9.08931e+06
7.73398e+06
7.44346e+06
7.87563e+06
9.29564e+06
1.19912e+07
1.48167e+07
1.57223e+07
1.52125e+07
1.51602e+07
1.52619e+07
1.54744e+07
1.65054e+07
3.3739e+07
2.67608e+07
2.54045e+07
3.17868e+07
1.44976e+07
1.34269e+07
1.29654e+07
1.30052e+07
1.33684e+07
1.38164e+07
1.28498e+07
1.01305e+07
7.70645e+06
6.55176e+06
6.30804e+06
6.67531e+06
7.89144e+06
1.02435e+07
1.26862e+07
1.34201e+07
1.29309e+07
1.28268e+07
1.30555e+07
1.35298e+07
1.46356e+07
3.34667e+07
2.63475e+07
2.47511e+07
3.10568e+07
1.31331e+07
1.19097e+07
1.12495e+07
1.11844e+07
1.14753e+07
1.18166e+07
1.09756e+07
8.64953e+06
6.5873e+06
5.60481e+06
5.39506e+06
5.70366e+06
6.72613e+06
8.7185e+06
1.07999e+07
1.14514e+07
1.10753e+07
1.09681e+07
1.12456e+07
1.19554e+07
1.31641e+07
3.14127e+07
2.55761e+07
2.41645e+07
2.88942e+07
1.20257e+07
1.0607e+07
9.88316e+06
9.70398e+06
9.9009e+06
1.01117e+07
9.33823e+06
7.3733e+06
5.64713e+06
4.83097e+06
4.65871e+06
4.92115e+06
5.79271e+06
7.49207e+06
9.27114e+06
9.86432e+06
9.58016e+06
9.51274e+06
9.85771e+06
1.06593e+07
1.20769e+07
2.98621e+07
2.56322e+07
2.42545e+07
2.7377e+07
1.11586e+07
9.51248e+06
8.82313e+06
8.55543e+06
8.63339e+06
8.72739e+06
8.00571e+06
6.33786e+06
4.89248e+06
4.2068e+06
4.05764e+06
4.28098e+06
5.01231e+06
6.43245e+06
7.94272e+06
8.51485e+06
8.35144e+06
8.35249e+06
8.75888e+06
9.52211e+06
1.11736e+07
2.84614e+07
2.53839e+07
2.43572e+07
2.64946e+07
1.03981e+07
8.58733e+06
7.92806e+06
7.62467e+06
7.59076e+06
7.58335e+06
6.90378e+06
5.48878e+06
4.27273e+06
3.69128e+06
3.56181e+06
3.7491e+06
4.35643e+06
5.54045e+06
6.82451e+06
7.38889e+06
7.33125e+06
7.40766e+06
7.82532e+06
8.56133e+06
1.03904e+07
2.70116e+07
2.45807e+07
2.33423e+07
2.56636e+07
9.78293e+06
7.77248e+06
7.13174e+06
6.83337e+06
6.71445e+06
6.59362e+06
5.93185e+06
4.73993e+06
3.74102e+06
3.26033e+06
3.1503e+06
3.31595e+06
3.83316e+06
4.82725e+06
5.92291e+06
6.47623e+06
6.51577e+06
6.65272e+06
7.03998e+06
7.77019e+06
9.85326e+06
2.65296e+07
2.42593e+07
2.2401e+07
2.45208e+07
9.336e+06
7.13767e+06
6.46173e+06
6.15469e+06
5.98633e+06
5.79831e+06
5.16465e+06
4.14871e+06
3.30921e+06
2.90103e+06
2.80519e+06
2.94788e+06
3.37971e+06
4.21134e+06
5.15e+06
5.69859e+06
5.81498e+06
5.98905e+06
6.36709e+06
7.12411e+06
9.41423e+06
2.55624e+07
2.31386e+07
2.1649e+07
2.35154e+07
8.98869e+06
6.67501e+06
5.87771e+06
5.5677e+06
5.37665e+06
5.13295e+06
4.53154e+06
3.65674e+06
2.95027e+06
2.60115e+06
2.51524e+06
2.63975e+06
3.00353e+06
3.69862e+06
4.5053e+06
5.04523e+06
5.23136e+06
5.42082e+06
5.78487e+06
6.64392e+06
9.1222e+06
2.40422e+07
2.21518e+07
2.0508e+07
2.19916e+07
8.79471e+06
6.30188e+06
5.38765e+06
5.04617e+06
4.83319e+06
4.55167e+06
3.98541e+06
3.23631e+06
2.63937e+06
2.34324e+06
2.26834e+06
2.37951e+06
2.69111e+06
3.28596e+06
3.98888e+06
4.49883e+06
4.723e+06
4.92435e+06
5.30124e+06
6.2771e+06
8.90834e+06
2.26732e+07
2.1395e+07
1.98752e+07
2.05704e+07
8.61334e+06
6.0605e+06
4.99517e+06
4.60742e+06
4.36825e+06
4.0721e+06
3.54144e+06
2.89012e+06
2.38313e+06
2.12662e+06
2.05844e+06
2.15664e+06
2.42318e+06
2.92613e+06
3.53554e+06
4.02517e+06
4.27832e+06
4.50259e+06
4.91849e+06
6.02415e+06
8.74686e+06
2.1035e+07
2.04766e+07
1.93504e+07
1.94019e+07
8.19786e+06
5.88777e+06
4.70919e+06
4.22831e+06
3.95946e+06
3.6606e+06
3.17148e+06
2.60404e+06
2.16372e+06
1.93974e+06
1.8779e+06
1.96477e+06
2.19435e+06
2.6298e+06
3.1625e+06
3.61747e+06
3.88135e+06
4.13603e+06
4.64765e+06
5.88125e+06
8.40124e+06
1.94641e+07
1.98378e+07
1.85132e+07
1.79302e+07
7.67058e+06
5.75895e+06
4.50256e+06
3.90991e+06
3.60533e+06
3.29569e+06
2.84474e+06
2.34887e+06
1.97242e+06
1.77834e+06
1.72259e+06
1.80203e+06
2.00411e+06
2.38102e+06
2.8498e+06
3.27459e+06
3.54849e+06
3.83841e+06
4.45478e+06
5.81693e+06
7.93143e+06
1.81615e+07
1.92913e+07
1.79812e+07
1.67209e+07
7.19283e+06
5.77988e+06
4.36484e+06
3.6648e+06
3.3054e+06
2.98665e+06
2.57363e+06
2.14038e+06
1.80927e+06
1.63743e+06
1.58671e+06
1.65832e+06
1.83456e+06
2.16435e+06
2.57505e+06
2.96531e+06
3.25815e+06
3.60005e+06
4.3267e+06
5.88078e+06
7.35788e+06
1.68367e+07
1.84509e+07
1.76258e+07
1.56131e+07
6.75824e+06
5.69003e+06
4.32032e+06
3.47965e+06
3.06009e+06
2.72656e+06
2.34176e+06
1.95641e+06
1.66753e+06
1.51529e+06
1.46875e+06
1.53402e+06
1.68867e+06
1.97403e+06
2.33977e+06
2.70721e+06
3.01983e+06
3.42953e+06
4.32173e+06
5.81606e+06
6.82338e+06
1.57168e+07
1.78694e+07
1.70206e+07
1.45169e+07
6.20501e+06
5.38108e+06
4.30338e+06
3.34029e+06
2.86262e+06
2.5001e+06
2.13704e+06
1.79499e+06
1.54049e+06
1.40582e+06
1.36418e+06
1.42427e+06
1.56161e+06
1.81628e+06
2.14276e+06
2.48834e+06
2.83253e+06
3.30542e+06
4.35588e+06
5.52886e+06
6.29557e+06
1.47755e+07
1.74347e+07
1.66286e+07
1.36967e+07
5.68239e+06
5.07132e+06
4.44233e+06
3.26432e+06
2.71609e+06
2.31947e+06
1.96722e+06
1.65662e+06
1.43094e+06
1.31086e+06
1.27198e+06
1.32683e+06
1.44826e+06
1.67294e+06
1.97081e+06
2.31052e+06
2.68709e+06
3.24967e+06
4.53249e+06
5.17792e+06
5.73531e+06
1.3883e+07
1.68711e+07
1.63266e+07
1.30494e+07
5.28004e+06
4.73501e+06
4.43429e+06
3.25405e+06
2.59557e+06
2.18404e+06
1.8276e+06
1.53897e+06
1.33426e+06
1.22545e+06
1.1897e+06
1.23919e+06
1.34829e+06
1.55132e+06
1.82837e+06
2.1731e+06
2.57214e+06
3.28712e+06
4.55569e+06
4.80086e+06
5.27432e+06
1.31834e+07
1.64881e+07
1.58675e+07
1.24449e+07
4.87851e+06
4.36562e+06
4.22246e+06
3.32247e+06
2.50725e+06
2.07237e+06
1.71309e+06
1.43654e+06
1.24806e+06
1.14983e+06
1.1165e+06
1.16296e+06
1.26195e+06
1.45069e+06
1.71785e+06
2.068e+06
2.51307e+06
3.45546e+06
4.30749e+06
4.42811e+06
4.99132e+06
1.25821e+07
1.62232e+07
1.55273e+07
1.19276e+07
4.59181e+06
4.01935e+06
3.95368e+06
3.46881e+06
2.49421e+06
1.98437e+06
1.62978e+06
1.35321e+06
1.17408e+06
1.08183e+06
1.05046e+06
1.09371e+06
1.18561e+06
1.36396e+06
1.63333e+06
1.97946e+06
2.52959e+06
3.57622e+06
4.00839e+06
4.07206e+06
4.65559e+06
1.20046e+07
1.584e+07
1.52639e+07
1.14329e+07
4.45399e+06
3.73295e+06
3.66918e+06
3.44085e+06
2.58916e+06
1.92593e+06
1.55888e+06
1.28936e+06
1.11341e+06
1.02305e+06
992237
1.03376e+06
1.12317e+06
1.29855e+06
1.56355e+06
1.9317e+06
2.68304e+06
3.50029e+06
3.68697e+06
3.76906e+06
4.43437e+06
1.14612e+07
1.55878e+07
1.49982e+07
1.09315e+07
4.22933e+06
3.47638e+06
3.38726e+06
3.24405e+06
2.79355e+06
1.9213e+06
1.50234e+06
1.24114e+06
1.06782e+06
974264
942710
984565
1.07582e+06
1.25046e+06
1.5145e+06
1.97777e+06
2.86515e+06
3.28274e+06
3.38469e+06
3.51881e+06
4.3274e+06
1.09688e+07
1.53924e+07
1.47835e+07
1.04432e+07
4.13602e+06
3.27233e+06
3.13354e+06
3.03907e+06
2.8541e+06
2.05407e+06
1.47191e+06
1.19974e+06
1.03313e+06
938243
902706
948150
1.03912e+06
1.20866e+06
1.49341e+06
2.12486e+06
2.84295e+06
3.05394e+06
3.12917e+06
3.30033e+06
4.16718e+06
1.04736e+07
1.51939e+07
1.4592e+07
1.00073e+07
4.08393e+06
3.1121e+06
2.92228e+06
2.82956e+06
2.70008e+06
2.28291e+06
1.52461e+06
1.16932e+06
1.00083e+06
908773
871335
918482
1.00658e+06
1.17843e+06
1.56271e+06
2.33762e+06
2.69082e+06
2.83293e+06
2.91818e+06
3.1246e+06
4.04591e+06
1.00223e+07
1.49684e+07
1.42228e+07
9.51089e+06
3.94496e+06
2.96374e+06
2.73966e+06
2.63013e+06
2.53961e+06
2.35638e+06
1.69986e+06
1.1671e+06
973409
882577
845869
891870
981312
1.19763e+06
1.78824e+06
2.36958e+06
2.53756e+06
2.64138e+06
2.74237e+06
2.98908e+06
3.97891e+06
9.57101e+06
1.45726e+07
1.36122e+07
8.95387e+06
3.81782e+06
2.83213e+06
2.58373e+06
2.46037e+06
2.37446e+06
2.244e+06
1.9074e+06
1.25384e+06
961453
859102
823240
867659
971593
1.30421e+06
1.95502e+06
2.25415e+06
2.37679e+06
2.47638e+06
2.59172e+06
2.85324e+06
3.83673e+06
9.01443e+06
1.39195e+07
1.20956e+07
8.13784e+06
3.66907e+06
2.70257e+06
2.4478e+06
2.3167e+06
2.22016e+06
2.12082e+06
1.94912e+06
1.46574e+06
1.00097e+06
846553
808023
853925
1.01905e+06
1.50973e+06
1.93861e+06
2.12831e+06
2.22645e+06
2.33458e+06
2.4568e+06
2.71487e+06
3.66156e+06
8.17242e+06
1.23848e+07
78985
68411.9
68357
69196
69775.7
70653.3
72015.8
73746.4
75870
78259.4
81025.7
84035.9
87538.1
96065
144539
261682
301167
314579
321795
322600
315298
306374
300014
296535
294812
293340
290690
282533
267461
262928
79264.3
66192.1
66760.4
67880.2
68714.6
70000.8
71754.7
73994.5
76671.6
79621
82817.5
86346.7
93350.7
135358
280922
330884
336497
339683
341421
336677
325063
314226
307007
303015
300725
298473
294817
285040
269817
269147
75581
64615.8
65880.4
67255.5
68426.9
70119.9
72447
75196.8
78447.6
81957.5
85752.7
91993.3
124753
267525
350121
354346
353968
353747
351731
342505
330426
319936
312586
308312
305404
302314
297535
285748
269732
273276
74638.8
64384.6
65844.6
67445.5
68965.2
71130.8
74037.7
77352
81220.1
85521.9
91960
120260
254682
369502
380561
375649
370653
365626
357705
346596
332980
322441
315114
310699
307458
303688
297739
284277
267353
275074
75789.3
64874.2
66321.1
68121.1
70099.2
72895.7
76522.4
80708.9
85777.8
93388.5
122166
250170
385659
407657
402130
392355
382410
372358
360002
347895
333398
321661
314229
309617
306113
301914
295160
280696
263593
276329
77615.2
65490.2
67057.5
69189.5
71891.6
75669.4
80895.1
87877.7
99051.7
132235
257934
391580
427155
426141
414998
401217
387064
373078
359598
347688
333364
320143
312147
307035
303019
298353
291170
276547
260475
276796
79694.1
66230.4
68076.8
70887.1
75065.6
82515.7
96389.8
119357
161232
273654
378058
424375
437805
431641
417717
400226
384249
370116
356687
345875
333348
318645
310174
304742
300372
295335
287688
272735
257230
276548
81714.2
67236.4
69667.8
74432.1
86634.8
116911
171435
234151
297132
355128
395911
424970
434448
426580
409401
391217
376830
363746
351282
341707
331723
316222
307421
301883
297457
292252
283963
268632
253648
275225
83748.2
68778.8
73403.4
91802.6
149663
244606
303151
325916
346254
368084
392534
415687
422352
411303
393384
378662
366491
354977
343590
335007
327617
312487
303310
297909
293570
288200
279254
263708
249444
272877
86612.1
72936.6
95763.5
185291
311231
352691
367627
364891
367306
372298
385506
402225
403400
390683
375809
364220
353964
343898
333444
325923
320887
307263
297667
292633
288451
282917
273405
257856
244446
269306
97386.3
106664
221081
375102
406423
414990
410653
394617
385034
376170
376894
385404
383243
371746
358074
348192
339396
330496
321056
314716
311508
300425
290569
286007
281987
276212
266239
250877
238406
264284
182296
330823
461233
475593
474568
473397
458780
429646
406782
380811
370803
371835
368007
355310
341169
331681
323559
315629
307311
302093
300191
291947
282241
278104
274172
268018
257637
242549
231200
257708
371569
643099
598362
561845
556277
555303
531338
484471
438971
397401
373227
363774
356981
342767
326547
315895
307501
300226
293208
288890
288025
282173
273009
269190
265202
258504
247976
233314
223293
250136
522319
764013
741776
700978
696654
699540
657537
575941
498427
428819
384997
361617
351008
335069
314951
301528
292298
285355
279353
275937
275697
271627
263217
259628
255521
248386
237998
223943
215295
242193
664686
897000
1.00235e+06
972067
965370
965096
878641
731601
594698
481795
409242
367076
349459
331546
306936
289001
278721
271551
266472
263964
263705
260744
253217
249776
245530
238251
228136
214829
207360
234082
803769
1.1064e+06
1.40253e+06
1.48421e+06
1.46446e+06
1.43633e+06
1.25052e+06
980710
744452
560115
448146
380536
351214
331244
302057
279259
267082
259192
254929
253251
252486
250074
243294
239974
235562
228319
218493
205984
199546
225825
944668
1.44328e+06
2.06678e+06
2.34269e+06
2.36769e+06
2.21045e+06
1.84493e+06
1.35445e+06
960644
667430
500308
402643
355047
335024
300061
271683
257161
248812
244974
243732
242441
239865
233892
230554
225871
218698
209158
197433
191992
217482
1.10856e+06
2.00184e+06
3.24334e+06
3.73868e+06
3.83549e+06
3.42873e+06
2.80041e+06
1.93828e+06
1.25336e+06
802821
561730
430737
364126
339417
299292
266703
249247
240415
236824
235518
233659
230403
225275
221711
216655
209582
200317
189326
184778
209182
1.30298e+06
2.92957e+06
5.23104e+06
5.68272e+06
5.51532e+06
4.58565e+06
3.6916e+06
2.61762e+06
1.65629e+06
955713
624496
456327
379180
347534
299119
262891
243457
234042
230668
228856
226258
222163
217293
213469
208100
201196
192185
181803
177929
201096
1.60003e+06
4.54283e+06
7.60571e+06
7.06929e+06
6.37035e+06
5.05887e+06
3.99313e+06
3.02136e+06
1.99406e+06
1.14782e+06
680550
483614
396084
357433
299536
260667
240404
230029
225869
223393
220039
215186
210090
205917
200398
193693
184877
174942
171561
193362
2.01658e+06
6.85904e+06
9.45552e+06
8.14965e+06
6.99426e+06
5.2356e+06
3.95168e+06
3.14183e+06
2.21482e+06
1.34e+06
742589
514904
416660
366548
300290
259136
238290
227407
222215
219241
214541
209146
203932
199283
193655
187064
178380
168722
165770
185985
2.711e+06
9.67115e+06
1.15074e+07
9.69856e+06
8.05993e+06
5.62101e+06
4.00497e+06
3.1148e+06
2.31891e+06
1.50713e+06
827915
550371
437820
373868
302771
260006
237702
225754
219336
215439
210217
204553
198956
193624
187729
181109
172509
162996
160518
178866
4.78541e+06
1.2064e+07
1.30354e+07
1.19426e+07
9.87133e+06
6.53884e+06
4.30722e+06
3.17239e+06
2.44447e+06
1.68708e+06
963297
600140
458080
382532
307886
261829
236881
224093
216829
213109
206895
200176
194640
188816
182573
175815
167242
157681
155615
172023
5.39022e+06
1.62256e+07
1.60039e+07
1.51886e+07
1.27169e+07
7.81557e+06
4.79374e+06
3.37009e+06
2.60493e+06
1.90255e+06
1.12822e+06
668016
474252
387284
320043
264491
235339
222416
215107
210827
202509
196191
190913
184941
178324
171363
162669
152863
150861
165538
6.42246e+06
1.75007e+07
2.0602e+07
2.01375e+07
1.71094e+07
9.55084e+06
5.54383e+06
3.71488e+06
2.78521e+06
2.09062e+06
1.2763e+06
732333
491745
395588
343991
272632
236577
222365
214269
206951
199186
193927
187774
181732
174789
167571
158724
148600
146321
159449
263151
267823
282949
291102
293791
295358
297206
300827
307311
316454
323743
323392
315818
302171
264426
147294
96717.5
87777.6
84221.8
81198.2
78364
75911.7
73818.2
72012.1
70701.3
69849.9
69294.9
68439
68489.9
79099.2
269516
270300
285570
295348
299060
301439
303846
308012
315332
326227
337529
342755
341065
337386
331844
285187
138483
94002
86610.6
83035.2
79773
76769.5
74087.6
71880.9
70070.6
68759.2
67949.3
66863.7
66317.6
79479.2
273818
270345
286446
298223
303086
306318
309302
313727
321031
331383
342940
352320
354880
354892
354892
351192
273971
128057
92665.2
86023.9
82146.8
78616.9
75303.3
72573.4
70250.9
68486.1
67313.2
65972.9
64743.7
75834.2
275829
268113
285136
298589
304653
308539
311870
316402
323639
333759
346536
357439
365889
371020
375919
380554
371027
263851
124139
92762.5
85837.3
81481.5
77492.9
74164
71247.6
69056.5
67505.5
65906.2
64472.2
74791.2
277259
264445
281693
296181
303069
307313
310907
315614
323011
334199
347373
359198
371544
381978
392158
401744
407259
387702
261953
127158
94709.7
86391.4
81061.7
76739.1
73064.1
70255
68230
66348.9
64863.9
75905.2
277840
261369
277608
292276
299633
304318
308459
313682
321703
334167
346941
358402
371621
385795
400417
414204
425062
425933
392611
270300
139182
102573
89636.4
81720.4
76051
72085.9
69330.6
67097.1
65481.9
77735.5
277682
258167
273846
288831
296627
301700
306204
311765
320268
333921
344972
355304
368271
382374
398661
416237
429906
435408
420701
376302
284221
176739
128545
101709
84533.9
75659.7
71100.2
68157.2
66255.3
79771.1
276434
254643
269785
285140
293497
298782
303319
308979
317775
331944
340785
349896
361788
374658
389119
407162
424135
431300
420206
390566
352554
301460
251202
191888
127893
90773.3
75292.6
69850.6
67295.7
81863.7
274139
250472
264884
280460
289431
294834
299284
304778
313825
327468
334083
342221
353024
364212
376306
390763
408325
418867
410834
387616
364604
345318
329095
311898
265374
169954
98225.8
74518
68990.7
84044.8
270587
245490
259031
274623
284098
289644
293919
299013
308347
320403
324901
331995
341904
351620
361746
373148
387827
399909
397689
381663
370325
366709
365765
370288
360034
326370
210600
104767
74746.7
87467.1
265557
239429
252022
267432
277367
283086
287158
291769
301243
310850
313632
319559
328504
337062
345751
355517
369421
380473
381382
374043
375842
385672
396433
413076
419036
414097
392743
254789
126817
103520
258925
232152
243624
258783
269176
275178
279106
283282
292545
299442
301061
305898
313765
321371
329470
338982
353792
366014
369055
370235
382859
409770
433783
463093
478633
481165
486178
490548
411378
218740
251273
224146
234277
249049
259648
266123
270053
273915
282605
287206
287951
291944
298606
305572
313989
324940
342316
355641
362011
375047
402673
446202
493429
540870
566076
568317
577093
619756
665116
390183
243249
216041
224770
238976
249438
256389
260394
264019
271927
274918
275100
278262
284007
290711
299977
314089
335645
350148
361263
389948
438311
511251
592510
677029
722690
723881
734279
778175
775049
534911
235055
208017
215537
229017
239177
246394
250477
253884
260976
263071
263189
265558
270432
277541
287836
306880
332687
348939
368666
417965
496538
615073
759150
915344
1.01135e+06
1.02146e+06
1.03942e+06
1.06408e+06
914936
675267
226710
200112
206598
219288
229143
236417
240622
243852
250191
252120
252599
254160
258273
266198
278602
302684
332738
350869
385093
460839
580820
776157
1.02824e+06
1.318e+06
1.52203e+06
1.578e+06
1.59821e+06
1.48093e+06
1.1321e+06
813290
218259
192443
197940
209842
219414
226670
231152
234379
239870
242321
243252
244372
248151
256427
271439
300942
336739
355898
409580
516562
695699
1.01061e+06
1.43925e+06
1.96978e+06
2.35714e+06
2.54963e+06
2.52186e+06
2.18426e+06
1.48176e+06
955334
209827
185118
189677
200850
210163
217342
222298
225658
230430
233690
235230
236346
239985
248756
266720
300132
341422
367132
438770
581685
840090
1.33503e+06
2.08048e+06
2.99566e+06
3.65285e+06
4.09857e+06
4.00785e+06
3.42772e+06
2.05799e+06
1.12111e+06
201611
178173
181984
192546
201632
208656
214082
217720
222231
226164
228674
230301
233723
243249
263070
299627
350737
383987
466149
646290
1.00618e+06
1.75445e+06
2.73664e+06
3.83125e+06
4.73738e+06
5.74079e+06
5.95974e+06
5.51461e+06
3.02259e+06
1.32725e+06
193776
171687
174994
185083
193991
200811
206525
210642
215357
219776
223198
225474
229773
240331
261162
300241
361331
402605
494612
703935
1.20669e+06
2.08256e+06
3.08267e+06
4.02765e+06
5.13054e+06
6.53548e+06
7.29105e+06
7.82931e+06
4.70369e+06
1.65767e+06
186315
165735
168734
178513
187308
193962
199727
204461
209476
214275
219013
221890
227182
238332
260225
301694
370400
426083
529101
770552
1.40269e+06
2.2837e+06
3.16679e+06
3.97214e+06
5.3029e+06
7.18948e+06
8.37307e+06
9.65345e+06
7.04467e+06
2.11152e+06
179111
160343
163009
172635
181364
188043
193960
199284
204855
210042
215053
219089
225681
238170
262115
305456
376125
446011
567641
869510
1.56965e+06
2.37186e+06
3.13312e+06
4.06337e+06
5.77366e+06
8.35441e+06
9.9745e+06
1.16972e+07
9.80759e+06
2.84668e+06
172161
155404
157704
167344
176044
182917
189134
194784
200403
206944
212607
216645
223945
237240
264346
310975
380922
460856
619004
1.00814e+06
1.75467e+06
2.49664e+06
3.22074e+06
4.40547e+06
6.77055e+06
1.02839e+07
1.2297e+07
1.32141e+07
1.21075e+07
5.00352e+06
165551
150700
152847
162697
171502
178666
185224
191177
196392
202710
210454
215227
222481
235296
266048
323085
384102
475353
688137
1.17899e+06
1.96278e+06
2.65554e+06
3.43957e+06
4.95046e+06
8.10606e+06
1.32353e+07
1.56327e+07
1.61524e+07
1.60742e+07
5.58168e+06
159358
146186
148484
158624
167578
175044
182038
188145
194016
199633
207016
214062
222229
236863
274728
347888
394892
495514
752269
1.33241e+06
2.14106e+06
2.83721e+06
3.7984e+06
5.74362e+06
9.93955e+06
1.77313e+07
2.06386e+07
2.07684e+07
1.74505e+07
6.53371e+06
4.27637e+06
4.15119e+06
4.02664e+06
3.85525e+06
3.67849e+06
3.49989e+06
3.31622e+06
3.13506e+06
2.98386e+06
2.82886e+06
2.6951e+06
2.57192e+06
2.45983e+06
2.36181e+06
2.27251e+06
2.18838e+06
2.11234e+06
2.0439e+06
1.97886e+06
1.91545e+06
1.85442e+06
1.79734e+06
1.74668e+06
1.70096e+06
1.65746e+06
1.61573e+06
1.5723e+06
1.52745e+06
1.4823e+06
1.4375e+06
1.39363e+06
1.35259e+06
1.31356e+06
1.27537e+06
1.23913e+06
1.20524e+06
1.17294e+06
1.13946e+06
1.10155e+06
1.05764e+06
1.00803e+06
952558
893040
833114
775867
719123
663065
604348
546108
503599
469467
442065
420117
402167
386499
372537
360097
349026
338984
329576
320679
312439
304724
296899
288698
280301
271821
263411
255137
247152
239679
232839
226639
220909
215408
209910
204177
198064
191676
185165
178671
172340
166288
160560
155145
150046
145304
140962
136967
133260
129778
126545
123602
121001
118778
116928
115420
114205
113248
112523
112019
111717
111606
111660
111849
112145
112539
113053
113714
114541
115539
116682
117982
119416
120991
122838
125047
127592
130255
132921
136134
139837
143930
148482
153572
2.80425e+06
2.80401e+06
2.68077e+06
2.51734e+06
2.30683e+06
2.07614e+06
1.87628e+06
1.69028e+06
1.56068e+06
1.4395e+06
1.32982e+06
1.23394e+06
1.15567e+06
1.09254e+06
1.04002e+06
996558
962713
937029
916344
897504
879861
865965
856342
848695
841285
833653
826861
823270
823682
830237
844826
868570
903473
949663
1.00747e+06
1.0768e+06
1.15602e+06
1.23941e+06
1.32268e+06
1.39399e+06
1.43863e+06
1.44953e+06
1.43396e+06
1.40048e+06
1.3469e+06
1.26153e+06
1.13757e+06
987108
835920
706427
605591
532108
480299
443094
414634
391420
372738
357743
345517
335206
325981
317427
309239
301165
293201
285407
277788
270127
262143
254344
247448
241848
237198
233105
229184
225113
220729
216017
210702
204726
198431
191964
185381
178801
172392
166277
160530
155217
150370
145917
141638
137523
133707
130347
127511
125157
123207
121586
120237
119113
118160
117357
116676
116134
115741
115524
115459
115527
115794
116207
116752
117506
118378
119147
119935
121197
123239
125186
126650
128107
130234
132792
135510
138454
142051
2.46423e+06
2.3957e+06
2.19947e+06
2.00267e+06
1.8297e+06
1.66801e+06
1.52923e+06
1.40359e+06
1.29094e+06
1.20182e+06
1.12276e+06
1.05623e+06
1.00272e+06
957289
917845
884085
854197
828366
806861
790471
779532
775029
776148
782628
793999
811253
834618
865922
909438
969407
1.05386e+06
1.17253e+06
1.33228e+06
1.54327e+06
1.81409e+06
2.15845e+06
2.56601e+06
2.99818e+06
3.41646e+06
3.78742e+06
4.03979e+06
4.13216e+06
4.16535e+06
4.1374e+06
4.01692e+06
3.7696e+06
3.40171e+06
3.00387e+06
2.53126e+06
2.02755e+06
1.58122e+06
1.21709e+06
954977
766241
634361
544912
483565
440203
408825
385013
366417
351933
340389
330756
321808
313074
304488
296660
290314
285059