/*--------------------------------*- C++ -*----------------------------------*\
| =========                 |                                                 |
| \\      /  F ield         | OpenFOAM: The Open Source CFD Toolbox           |
|  \\    /   O peration     | Version:  2112                                  |
|   \\  /    A nd           | Website:  www.openfoam.com                      |
|    \\/     M anipulation  |                                                 |
\*---------------------------------------------------------------------------*/
FoamFile
{
    version     2.0;
    format      ascii;
    arch        "LSB;label=32;scalar=64";
    class       volScalarField;
    location    "0.0045";
    object      k;
}
// * * * * * * * * * * * * * * * * * * * * * * * * * * * * * * * * * * * * * //

dimensions      [0 2 -2 0 0 0 0];

internalField   nonuniform List<scalar> 
13875
(
812.079
3462.66
3540.19
3539.14
3542.3
3540.59
3540.37
3540.78
3542.42
3541.71
3540.84
3541.17
3540.72
3540.11
3540.31
3541.46
3542.58
3540.72
3540.73
3539.47
3542.15
3538.94
3540.03
3460.34
820.411
881.805
2936.66
3012.94
3000.25
3000.62
2997.46
2995.98
2995.91
2996.92
2995.42
2997.95
2998.53
2996.9
2996.62
2996.22
2998.52
2995.93
2997.09
2997.84
2997.47
3000.46
2998.85
3011.42
2933.37
894.557
993.386
2710.88
2777.32
2754.63
2756.13
2753.59
2751.5
2750.64
2748.17
2742.06
2743.78
2745.44
2752.09
2752.65
2751.1
2745.62
2741.55
2745.1
2753.38
2754.67
2757.01
2752.43
2774.11
2706.31
998.474
1091.12
2533.71
2580.85
2560.86
2564.12
2561.8
2559.55
2558.62
2556.26
2548.89
2547.96
2549.94
2559.87
2560.45
2559.04
2550.28
2548.4
2550.52
2560.95
2562.57
2564.87
2558.76
2578.71
2529.56
1094.02
1172.17
2380.47
2413
2392.23
2395.31
2393.14
2390.95
2390.08
2387.65
2380.64
2378.98
2380.72
2391.08
2391.79
2390.3
2381.04
2380.17
2381.37
2392.01
2394.11
2396.13
2390.54
2410.08
2375.78
1177.54
1241.07
2237.12
2270.67
2244.19
2248.22
2245.4
2242.64
2241.48
2238.71
2232.07
2229.44
2231.07
2242.11
2243.04
2241.41
2231.36
2231.7
2231.91
2243.09
2246.79
2249.27
2243.2
2267.41
2247.49
1247.1
1321.01
2121.73
2158
2119.58
2120.02
2115.55
2111.82
2110.23
2106.86
2100.68
2096.68
2098.38
2110.27
2111.49
2109.43
2098.71
2100.44
2099.98
2111.84
2117.22
2121.22
2119.27
2153.75
2095.8
1323.1
1409.88
2000.71
2073.25
2019
2013.47
2004.58
1998.24
1995.13
1990.7
1985.11
1979.35
1980.83
1993.81
1995.71
1993.2
1981.45
1984.91
1983.88
1996.77
2005.94
2014.15
2018.42
2067.7
1992.2
1419.88
1691.4
2028.91
2021.76
1944.42
1923.59
1910.28
1901.13
1895.92
1890.38
1884.82
1877.59
1878.73
1892.79
1895.54
1892.6
1880.1
1884.82
1883.31
1897.26
1911.2
1925.28
1942.88
2018.05
2033.77
1716.88
2507.99
2284.88
2017.7
1898.72
1864.04
1840.27
1827.45
1819.61
1813.17
1806.73
1799.2
1799.87
1814.49
1818.13
1815.07
1803.4
1807.51
1806.85
1819.97
1838.73
1863.48
1896.81
2012.13
2265.05
2526.78
3875.78
3025.62
2156.24
1925.31
1835.07
1799.27
1780.77
1769.33
1761.76
1754.16
1747.27
1747.28
1761.81
1766.27
1763.94
1754.8
1757.18
1758.06
1770.74
1793.19
1833.18
1921.1
2140.22
2945.09
3862.57
5172.13
6423.31
2898.06
2020.59
1892.79
1810.47
1771.9
1753.58
1742.83
1734.37
1728.49
1728.16
1741
1746.23
1745.38
1739.87
1741.75
1745.47
1761.41
1802.94
1879.86
1995.91
2822.53
6323.55
5116.99
5057.69
7348
7299.14
3566.99
2135.65
1897.49
1836.71
1814.95
1799.34
1790.1
1785.11
1785.23
1795.12
1800.62
1801.69
1800.26
1804.59
1814.55
1834.37
1893.27
2183.6
3450.71
6975.74
7345.46
5010.37
4825.16
6188.04
7298.38
9408.18
5328.02
2639.97
2224.46
2080.24
2032.49
2014.33
2006.11
2006.13
2013
2018.84
2022.41
2027.34
2043.01
2088.83
2242.97
2778.64
5871.87
8702.18
7025.57
6172.16
4846.25
4636.3
5475.39
6197.51
7541.94
6647.04
6249.99
5659.11
4194.46
4229.77
4247.63
4244.72
4230.65
4248.91
4255.95
4261.09
4253.71
4235.77
4228.44
5826.88
6600.61
6729.43
7178.14
6059.43
5443.19
4736.61
4415.87
4900
5596.54
6799
6819.65
7255.01
6629.34
5661.46
6092.99
6488.98
6532.17
6515.37
6540.83
6583.53
6555.42
6502.76
6079.04
5576.53
6617.31
7449.66
6871.9
6576.94
5489.07
4852
4499.63
4039.86
4507.85
5286.17
6338.35
6488.78
6877.37
6561.22
5708.58
5117.22
5137.69
5170.12
5169.16
5188.77
5213.33
5198.59
5168.36
5174.48
5716.09
6422.02
6964.98
6561.73
6253.35
5173.67
4383.62
4011.68
3459.95
4277.94
5396.8
5760.76
5694.68
6276.54
6124.57
5512.13
4739.58
4381.16
4290.71
4267.14
4284.56
4309.52
4344.87
4457.97
4835.56
5501.8
5919.72
6175.17
5700.9
5758.53
5405.98
4206.71
3399.39
2912.8
4334.67
5265.74
5290.4
5070.3
5328.19
5391.67
5203.4
4652.78
4094.06
3797.38
3685.34
3679.44
3710.51
3812.42
4084.13
4630.48
5128.46
5229.34
5247.82
5050.58
5288.04
5279.7
4363.28
2894.2
2722.2
4715.71
4929.79
4766.27
4547.51
4656.81
4780.79
4797.54
4475.5
3898.42
3458.99
3264.25
3235.29
3292.06
3478.9
3883.72
4424.53
4707.18
4665.11
4611.08
4567.11
4794.79
4923.58
4687.93
2704.54
3290.56
4246.21
4327.73
4220.45
4059.97
4137.26
4263.76
4365.27
4177.12
3646.76
3155.98
2911.41
2868.59
2950.97
3199.66
3654.7
4127.35
4276.02
4180.38
4123.93
4107.13
4266.8
4341.07
4222.36
3236.16
4693.24
4889.27
3891.99
3772.67
3654.33
3725.48
3825.57
3958.42
3849.37
3369.9
2873.06
2607.69
2553.5
2646.96
2918
3377.68
3795.09
3869.87
3755.73
3723.4
3710
3814.33
3913.33
5034.73
4743.79
5337.57
5430.43
3565.78
3375.72
3306.72
3361.12
3440.38
3588.22
3518.55
3084.98
2607.25
2340.98
2280.31
2369.63
2636.25
3080.17
3461.12
3501.61
3367.2
3348.49
3350.7
3407.9
3570.59
5620.39
5421.72
5510.28
5412.67
3264.52
3060.35
2993.29
3017.94
3100.53
3256.67
3201.57
2789.93
2345.09
2101
2044.9
2130.06
2378.65
2794.45
3152.74
3177.57
3030.07
3007.38
3034.32
3098.64
3291.33
5543.94
5605.1
5602.34
5397.71
3035.13
2822.89
2726.74
2731.09
2815.69
2960.54
2910.24
2528.45
2116.98
1894.77
1844.64
1921.81
2149.56
2538.79
2871.13
2889.78
2748.45
2715.48
2758.26
2858.04
3069.5
5587.86
5734.01
5699.44
5383.29
2871.1
2631.36
2505.41
2496.91
2573.09
2695.83
2643.07
2292.93
1919.8
1718.59
1672.81
1741.63
1945.46
2297.43
2602.03
2628.13
2507.85
2471
2519.28
2655.38
2888.32
5407.93
5844.62
5807.91
5178.46
2734.76
2459.41
2322.78
2298.06
2360.88
2455.82
2391.96
2074.62
1742.56
1565.61
1525.89
1587.84
1772.02
2091.15
2369.83
2404.12
2302.91
2270.73
2329.56
2482.78
2755.92
5289.96
6013.4
5968.61
5056.33
2629.74
2309.75
2177.77
2137.97
2180.03
2248.22
2174.27
1886.53
1592.35
1435.48
1399.24
1454.79
1618.01
1900.44
2153.88
2201.95
2126.22
2105.3
2175.16
2323.78
2644.02
5184.43
6160.91
6144.84
5012.54
2535.72
2178.94
2050.62
2003.73
2023.87
2066.69
1983.37
1723.54
1462.41
1322.49
1289.38
1338.34
1480.97
1729.85
1960.46
2023.3
1972.19
1965.62
2038.66
2184.37
2543.84
5060.72
6210.51
6156.3
4965.94
2459.41
2058.73
1931.95
1885.24
1886.66
1900.1
1803.58
1570.34
1344.62
1223.35
1193.89
1239.27
1366.75
1586.51
1795.65
1870.08
1843.16
1850.28
1919.25
2067.12
2482.32
5073.81
6281.39
6097.7
4878
2409.85
1964.86
1828.07
1777.85
1766.31
1759.06
1654.5
1443.91
1244.8
1137.1
1110.23
1151.11
1262.46
1455.71
1646.3
1732.82
1727.32
1744.12
1813.05
1969.79
2433.21
5016.27
6243.98
6066.28
4815.44
2376.05
1899.35
1733.73
1680.37
1660.55
1634.79
1525.23
1333.62
1158.33
1062.18
1037.06
1074.23
1172.19
1341.36
1514.91
1611.06
1626.11
1649.03
1717.59
1899.67
2408.28
4876.56
6175.39
5979.39
4660.87
2367.76
1848.1
1652.68
1589.57
1561.41
1520.39
1407.92
1234.94
1080.06
995.152
972.338
1006.89
1094.27
1245.69
1405.2
1504.2
1533.31
1561.75
1636.23
1849.15
2398.17
4759.98
6131.76
5932.97
4520.83
2364.18
1821.71
1587.39
1510.28
1472.16
1421.59
1308.37
1150.42
1013.4
936.953
915.376
947.047
1024.8
1158.33
1303.87
1406.95
1448.34
1485.41
1572.06
1819.31
2397.25
4588.51
6062.48
5901.58
4420.31
2313.94
1807.97
1542.03
1439.12
1389.81
1332.99
1222.12
1078.14
954.291
885.049
864.73
893.775
963.292
1083.78
1217.18
1319.32
1368.35
1416.35
1529.41
1811.05
2361.49
4420.7
6008.8
5822.55
4246.46
2235.83
1801.6
1512.82
1378.27
1315.73
1250.65
1142.43
1010.87
900.913
838.791
819.842
847.311
910.717
1018.99
1141.6
1242.55
1298.9
1359.58
1502.99
1818.93
2297.96
4288.33
5968.81
5766.99
4112.05
2164.26
1828.1
1498.18
1331.82
1250.81
1178.17
1074
954.412
854.105
797.229
779.393
804.973
862.189
960.561
1072.55
1170.22
1236.34
1314.4
1490.28
1854.33
2207.31
4132.8
5874.41
5743.94
3983.74
2097.37
1831.33
1505.15
1298.35
1196.79
1115.21
1013.41
902.767
812.244
760.228
743.344
767.376
819.247
907.325
1011.18
1107.89
1184.05
1284.46
1506.52
1863.11
2119.42
4002.98
5802.98
5677.53
3840.52
1998.63
1781.3
1517.8
1275.37
1153.23
1058.66
958.024
856.037
773.542
726.099
710.528
733.338
780.836
862.162
958.379
1053.53
1143.03
1265.39
1531.97
1820.89
2026.63
3901.63
5757.78
5630.62
3744.75
1900.03
1728.62
1569
1268.45
1122.12
1012.96
910.931
814.88
739.4
695.844
680.892
702.302
745.582
819.683
910.869
1008.83
1112.18
1263.9
1592.19
1758.89
1919.59
3788.4
5690.29
5599.59
3680.68
1824.66
1665.51
1585.41
1278.71
1097.33
979.239
871.64
779.197
708.552
667.958
653.814
673.679
713.717
782.881
870.86
974.597
1088.95
1287.29
1616.78
1686.22
1829.94
3708.87
5640.88
5539.51
3611.04
1744.72
1589.24
1548.15
1310.26
1081.17
951.72
839.195
747.446
680.383
642.721
629.196
648.337
685.687
752.006
839.856
949.268
1081.69
1346.25
1571.47
1610.12
1780.25
3656.89
5614.2
5487.85
3559.69
1690.1
1514.7
1492.89
1363.73
1087.26
930.896
816.386
721.587
655.892
619.571
606.501
624.784
660.423
725.097
816.784
928.421
1096.76
1393.28
1508.93
1533.17
1713.56
3588.12
5564.15
5450.53
3519.38
1673.02
1452.62
1429.99
1369.53
1125.7
919.216
797.226
702.15
635.81
599.306
586.172
604.126
639.762
705.222
798.116
920.394
1152.78
1386.28
1436.3
1466.46
1674.02
3526.89
5530.37
5416.37
3456.31
1630.41
1394.92
1364.18
1325.84
1197.18
925.227
782.64
688.261
621.237
582.543
568.8
587.287
624.568
691.515
786.423
943.18
1217.89
1337.11
1364.98
1411.26
1664.31
3477.79
5506.62
5382.26
3399.82
1623.5
1349.93
1303.14
1277.24
1226.53
976.384
777.374
676.599
610.791
570.703
554.971
575.34
613.341
679.773
784.709
998.883
1222.32
1281.82
1303.28
1361.97
1638.52
3412.38
5482.66
5350.98
3353.5
1628.6
1316.15
1251.89
1224.8
1189.38
1058.65
802.109
669.116
601.091
561.416
544.529
566.024
603.563
672.442
815.616
1075.82
1185.66
1226.05
1251.93
1323.28
1622.73
3354.97
5444.48
5276.92
3277.48
1607.39
1283.96
1206.8
1172.98
1148.25
1091.52
870.192
672.723
593.205
553.289
536.441
557.797
596.667
684.371
900.709
1095.26
1146.79
1176.85
1209.16
1295.6
1623.2
3299.48
5361.11
5134.25
3181.97
1589.06
1255.82
1168.29
1128.28
1103.59
1062.95
949.226
711.009
591.841
546.205
529.423
550.453
596.277
730.111
965.656
1065.77
1103.71
1133.93
1172.46
1266.21
1600.08
3202.54
5211.34
4752.74
3011.86
1564.47
1227.39
1134.63
1090.2
1060.59
1029.1
971.317
795.816
612.136
543.856
525.622
547.626
619.873
812.201
967.448
1031.13
1062.26
1096.71
1139.25
1234.88
1566.56
3022.74
4828.54
264.945
411.667
479.085
504.329
513.526
520.071
528.459
538.443
550.354
563.368
578.042
593.63
611.328
651.802
851.463
1272.83
1407.95
1455.48
1481.89
1487.38
1466.77
1439.95
1419.54
1405.65
1392.42
1370.7
1327.89
1234.75
1048.12
642.799
255.875
412.381
478.642
502.552
511.891
520.055
530.074
542.344
556.695
572.178
588.65
606.477
640.142
816.218
1333.63
1497.06
1519.67
1533.73
1542.36
1530.41
1496.47
1463.48
1439.83
1423.32
1406.68
1380.14
1331.06
1229.48
1039.75
648.501
255.518
419.938
480.884
502.742
512.731
522.623
535.333
549.966
566.917
584.897
603.995
634.139
773.095
1282.3
1548.52
1568.17
1572.41
1575.81
1572.66
1546.92
1511.43
1479.14
1454.4
1435.83
1415.4
1383.58
1327.55
1215.95
1020.48
650.949
257.726
426.419
483.4
505.04
516.408
528.614
544.107
561.375
581.114
602.652
633.639
753.874
1231.6
1594.3
1635.29
1628.02
1618.76
1607.77
1586.73
1555.4
1515.21
1482.6
1457.39
1437.3
1414.08
1377.65
1314.85
1194.91
995.066
650.229
260.169
430.605
486.887
509.16
522.687
537.972
556.827
578.083
603.185
639.311
760.194
1209.52
1626.75
1697.74
1690.63
1669.92
1646.64
1620.95
1586.87
1552.77
1510.19
1473.7
1447.68
1425.96
1400.33
1360.42
1292.61
1167.36
966.899
648.938
263.973
435.379
491.748
515.269
532.158
552.028
578.131
611.738
662.723
797.808
1230.39
1630.13
1733.13
1737.91
1715.28
1683.92
1649.18
1612.56
1575.78
1542.9
1501.5
1460.51
1432.29
1408.04
1379.36
1336.18
1265.14
1138.18
942.452
646.543
268.72
441.088
498.137
524.459
548.078
584.401
646.664
741.801
900.295
1273.48
1578.65
1704.58
1743.83
1734.29
1704.69
1664.05
1625.34
1589.49
1554.05
1525.5
1490.53
1445.37
1415.31
1389.18
1358.07
1312.12
1238.17
1109.67
917.658
643.194
273.784
448.205
507.311
542.273
600.52
723.965
919.949
1127.84
1323.13
1489.68
1600.2
1677.95
1706.61
1693.54
1656.7
1616.11
1583.8
1552.83
1521.94
1498.41
1472.2
1425.2
1393.89
1366.71
1334.29
1286.46
1209.54
1080.11
892.961
638.404
278.881
457.717
526.349
618.064
833.94
1132.86
1296.31
1358.1
1415.79
1479.46
1548.15
1612.8
1636.48
1617.78
1581.88
1553.64
1530.11
1506.04
1480.35
1461.3
1443.93
1398.79
1366.25
1338.95
1305.92
1256.58
1177.13
1047.96
867.067
632.293
285.676
478.292
619.922
938.975
1293.26
1378.75
1400.05
1390.18
1401.29
1426.44
1472.33
1526.03
1540.65
1522.37
1498.68
1482.44
1467.27
1450.04
1429.26
1414.94
1405.56
1365.77
1332.04
1305.5
1272.34
1221.93
1140.82
1013.32
840.049
624.547
310.033
599.941
1018.76
1424.89
1456.14
1437.88
1404.85
1365.93
1354.18
1355.81
1381.12
1423.14
1436.99
1428.18
1412.52
1404.76
1396.82
1385.62
1369.95
1360.63
1357.51
1326.08
1291.8
1266.5
1233.52
1182.28
1100.48
975.925
811.28
614.775
475.981
1174
1573.46
1557.1
1490.41
1439.46
1384.45
1326.48
1297.51
1275.11
1288.88
1324.38
1343.65
1339.34
1327.89
1325.1
1322.1
1316.2
1305.76
1301.07
1302.5
1280.13
1246.61
1222.56
1189.84
1137.88
1056.22
935.572
780.763
602.756
757.211
1771.34
1737.18
1586.27
1501.25
1447.73
1384.21
1309.38
1253
1215.86
1213.72
1238.14
1260.94
1261.24
1250.15
1248.06
1247.12
1245.3
1240.34
1239.36
1244.36
1229.51
1197.93
1174.96
1142.37
1089.67
1009.51
893.773
749.852
589.296
948.004
1872.15
1811.15
1651.64
1575.37
1536.55
1462.25
1353.14
1260.52
1188.67
1161.3
1168.07
1192.69
1197.42
1182.31
1176.54
1175.81
1176.79
1176.12
1178.52
1185.67
1176.33
1147.28
1125.27
1092.87
1040.15
962.728
852.78
720.016
575.328
1112.57
1925.7
1991.34
1873.08
1817.95
1794.33
1683.22
1505.29
1340.06
1210.59
1141.43
1120.31
1138.64
1146.9
1126.44
1112.5
1111.07
1112.83
1115.76
1121.23
1128.41
1122.4
1096.18
1074.99
1042.96
991.327
917.267
813.703
691.435
561.153
1261.92
2053.16
2327.42
2382.12
2346.37
2317.35
2112.21
1802.52
1517.55
1290.05
1160.57
1097.19
1097.45
1107.79
1081.86
1058.96
1054.22
1054.94
1060.68
1068.66
1074.26
1069.74
1045.89
1025.52
993.896
944.015
873.488
776.511
664.099
546.778
1404.91
2331.52
2966.41
3274.59
3321.71
3186.08
2809.99
2271.3
1804.85
1432.34
1217.2
1101.19
1067.83
1082.36
1048.28
1014.59
1004.97
1004.92
1011.87
1020.9
1024.68
1019.4
998.048
978.08
946.63
898.639
831.656
741.172
638.284
532.267
1562.77
2856.81
4120.32
4694.99
4835.2
4488.76
3879.81
2985.19
2201.67
1630.81
1303.95
1127.72
1057.17
1063.52
1022
980.544
964.155
962.824
970.064
978.417
980.08
972.408
953.629
933.42
901.864
855.843
792.321
708.055
614.097
517.815
1740.67
3735.17
5964.58
6546.39
6454.73
5665.02
4835.38
3774.25
2726.59
1861.44
1404.72
1160.88
1066.7
1058.49
1001.57
953.113
931.943
928.64
935.755
941.907
940.804
930.256
912.276
891.697
860.198
816.293
756.077
677.509
591.456
503.683
1998.02
5173.76
7987.65
7781.99
7236.24
6134.42
5166.37
4225.8
3147.43
2139.78
1502.45
1206.59
1087.69
1063.05
987.132
933.183
909.616
903.06
907.021
910.274
906.23
893.08
874.438
853.197
822.165
780.363
723.157
649.625
570.551
490.095
2333
7031.48
9396.91
8609.26
7703.23
6268.69
5130.51
4354.66
3406.19
2400.57
1609.99
1266.33
1122.84
1071.66
978.074
918.324
892.189
883.099
882.984
883.69
875.018
859.918
840.851
818.552
788.019
747.957
693.415
624.202
551.54
477.066
2842.53
9001.62
10735
9641.35
8421.43
6530.39
5149.26
4318.8
3519.07
2612
1745.51
1336.67
1164.96
1081.96
976.776
911.932
880.685
867.324
862.439
859.394
848.321
832.154
811.852
787.893
757.354
718.544
666.374
600.798
534.304
464.423
4151.77
10435.3
11530.3
11029.5
9610.07
7196.56
5380.38
4356.43
3643.9
2825.12
1941.35
1428.62
1209.32
1099
984.185
909.816
870.294
852.877
844.031
840.214
825.663
806.217
785.9
760.839
730.028
692.073
641.955
579.199
518.294
452.195
4495.73
12370
12959.6
12915.8
11392.2
8107.02
5766.64
4525.04
3798.93
3065.9
2162.75
1543.58
1247.73
1111.89
1009.53
911.806
859.693
839.578
828.866
822.306
801.456
782.465
762.772
737.571
706.362
668.999
620.37
559.676
502.968
440.529
5050.7
12426.6
14952.8
15579.6
13964.4
9301.91
6360.35
4824.7
3967.34
3263.54
2348
1645.87
1287.36
1133.76
1060.73
927.533
856.915
831.462
817.188
801.372
781.15
764.555
742.445
717.285
685.785
648.821
601.435
542.35
488.571
429.495
643.163
1049.51
1236.19
1329.27
1372.21
1394.25
1407.89
1422.24
1443.02
1470.5
1491.01
1486.79
1459.02
1410.79
1281.84
861.914
654.801
612.56
594.624
578.982
563.984
550.673
538.924
528.575
520.457
514.041
504.912
479.42
411.721
265.153
649.094
1041.47
1231.31
1332.87
1382.13
1409.09
1426.1
1443.15
1467.08
1500.19
1533.1
1546.43
1537.75
1522.09
1499.83
1347.25
828.261
643.16
607.805
589.773
572.991
557.251
542.885
530.801
520.504
512.202
502.926
479.034
412.566
256.361
651.808
1022.57
1218.32
1329.9
1386.22
1418.5
1439.16
1458.16
1482.69
1514.46
1548.29
1574.45
1579.13
1575.02
1569.63
1551.56
1302.95
786.016
637.239
605.336
585.855
567.79
550.538
536.017
523.346
513.081
503.038
481.267
420.273
256.049
651.42
997.587
1197.8
1317.76
1380.96
1417.76
1441.24
1461.65
1486.48
1517.64
1555.19
1585.88
1608.46
1619.74
1628.65
1635.01
1598.42
1261.05
769.099
637.299
604.181
582.41
562.096
544.768
529.24
516.91
505.37
483.699
426.728
258.132
650.398
969.643
1170.72
1296.11
1364.38
1404.44
1430.32
1452.27
1478.05
1512.64
1551.08
1584.3
1618.35
1645.2
1669.1
1689.11
1696.03
1632.05
1247.4
779.659
645.217
606.077
579.798
557.909
538.844
523.512
509.749
487.025
430.473
260.456
648.169
945.296
1141.77
1268.96
1340.57
1383.82
1412.86
1437.36
1465.5
1503.91
1540.48
1571.95
1607.94
1645.15
1681.18
1712.38
1733.98
1728.79
1632.53
1269.82
824.108
677.642
619.641
582.006
553.905
533.154
516.016
491.96
435.278
264.164
644.956
920.596
1113.42
1242.13
1316.58
1362.66
1394.15
1420.56
1450.53
1492.19
1522.59
1549.61
1583.64
1619.39
1658.89
1699.53
1728.11
1735.75
1693.2
1572.53
1305.44
954.083
776.713
668.503
593.428
550.931
525.548
498.565
441.182
269.004
640.278
896.049
1084
1213.62
1290.82
1338.9
1371.61
1399.03
1430.1
1472.73
1495.43
1517.45
1546.56
1576.85
1609.19
1649.05
1684.89
1695.84
1662.72
1582.75
1478.96
1331.86
1178.45
986.662
764.261
617.905
546.322
508.225
448.444
274.059
634.243
870.227
1051.93
1181.33
1260.93
1310.36
1343.67
1371.1
1403
1443.32
1458.27
1475.87
1499.74
1522.76
1545.81
1572.85
1607.19
1624.13
1596.37
1530.4
1464.1
1406.28
1359.96
1314.52
1190.5
900.469
643.611
531.434
458.691
279.554
626.531
843.257
1017.31
1145.07
1226.15
1276.59
1309.96
1336.51
1369.18
1403.96
1411.59
1424.52
1443.58
1459.68
1474.14
1489.28
1511.72
1527.69
1509.52
1455.89
1412.86
1390.05
1382.45
1397.03
1388.57
1327.17
1014.77
653.355
485.524
287.646
616.747
814.452
979.854
1104.68
1186.45
1237.52
1270.55
1295.82
1328.68
1355.43
1357.09
1365.06
1379.16
1389.24
1396.48
1403.25
1418.66
1425.41
1407.21
1365.82
1344.25
1343.42
1357.28
1397.32
1434.1
1462.22
1459.13
1109.66
659.988
323.334
604.653
783.744
939.307
1060.28
1142.05
1193.58
1226.18
1250.16
1282.08
1300.19
1297.73
1301.14
1310.14
1314.96
1317.47
1319.57
1331.77
1333.66
1310.95
1277.89
1267.46
1289.99
1320.09
1377.47
1433.46
1487.19
1563.5
1624.92
1344.13
536.355
591.083
752.563
897.198
1013.36
1093.81
1145.86
1178.18
1201.09
1230.99
1241.9
1236.35
1236.19
1240
1240.76
1241.31
1243.4
1256.28
1252.28
1226.68
1207.22
1214.02
1252.89
1310.38
1384.56
1448.4
1502.66
1591.76
1753.89
1792.17
781.806
576.998
722.438
855.82
966.317
1044.02
1096.22
1128.22
1150.16
1177.46
1183.42
1175.9
1172.55
1172.35
1170.51
1170.86
1177.56
1194.91
1185.03
1159.55
1161.02
1194.78
1270.42
1366.75
1478.01
1555.12
1597.19
1678.3
1838.15
1865.58
962.922
562.705
693.616
816.407
920.584
994.834
1046.29
1077.77
1098.69
1123.38
1126.67
1118.88
1112.79
1109.13
1107.02
1108
1123.82
1145.66
1131.8
1115.99
1148.67
1226.64
1363.15
1536.16
1723.5
1843.95
1876.44
1940.53
2045.58
1926.73
1124.27
548.205
666.05
778.956
876.56
947.225
997.19
1028.15
1048.11
1070.45
1073.39
1066.75
1058.23
1051.91
1051.1
1055.92
1081.01
1107.29
1091.32
1099.31
1175.86
1317.25
1558.8
1861.32
2190.9
2413.94
2470.18
2501.7
2401.67
2066.59
1271.87
533.534
639.932
743.31
834.412
901.532
949.75
980.57
1000.1
1019.85
1024.6
1019.57
1009.99
1002.7
1002.35
1012.72
1048.08
1082.34
1064.69
1108.76
1240.04
1472.88
1872.43
2376.22
2951.84
3347.01
3514.99
3461.53
3085.5
2364.82
1415.4
518.876
615.443
709.723
794.63
858.33
904.642
935.87
955.397
972.976
980.485
977.702
968.618
961.332
962.272
979.452
1021.79
1064.26
1059
1138.42
1334.49
1686.07
2310.25
3153.41
4090.1
4720.77
5099.72
4964.33
4305.41
2914.13
1574.59
504.542
592.512
678.652
757.868
818.332
862.571
894.205
914.179
930.99
940.889
941.548
934.695
927.521
930.889
952.544
1000.77
1061.93
1072.64
1176.05
1439.59
1935.87
2853.17
3914.15
4986.14
5822.94
6673.51
6811.24
6231.65
3832.82
1762.69
490.792
571.238
650.377
724.481
781.98
824.097
855.665
876.682
894.127
905.868
909.922
905.952
902.169
908.976
933.513
986.996
1068.11
1097.65
1224.95
1540.69
2224.35
3260.03
4304.5
5216.5
6215.6
7393.86
7989.79
8198.65
5335.27
2046.14
477.626
551.769
624.817
694.496
749.384
789.616
820.521
842.997
861.395
874.682
883.294
882.162
882.341
891.932
920.248
979.729
1076.9
1138.87
1291.04
1655.17
2487.64
3495.18
4396.37
5164.64
6341.38
7876.63
8811.15
9584.5
7217.56
2406.06
464.844
534.171
601.388
667.365
719.932
758.91
789.504
813.401
833.515
848.259
858.614
861.89
867.026
881.549
916.39
981.504
1084.44
1179.24
1366.57
1809.68
2697.01
3590.19
4353.32
5215.74
6670.1
8664.61
9879.67
10917.9
9163.02
2936.81
452.435
518.072
579.755
642.791
693.318
731.604
762.347
786.889
807.349
826.223
839.156
843.693
852.461
870.919
915.106
989.702
1094.25
1214.17
1460.02
2007.45
2913.68
3713.83
4419.4
5481.11
7395.55
9931.78
11321.8
11711.9
10553.2
4276.26
440.55
502.873
560.03
620.908
669.91
707.847
738.921
764.037
783.515
802.412
821.635
829.358
839.795
859.529
915.04
1015.11
1104.69
1249.59
1575
2232.94
3144.7
3867
4607.46
5915.04
8344.59
11775.9
13266.7
13131
12405.3
4601.14
429.33
488.499
542.363
601.553
649.296
686.959
718.644
743.957
765.268
782.744
801.858
816.862
831.233
857.627
932.112
1068.26
1131.88
1293.83
1675.85
2422.21
3331.99
4036.55
4918.27
6538.66
9599.43
14402.3
15965.9
15143
12514.9
5108.97
3362.31
3299.29
3236.11
3146.9
3053.68
2957.62
2856.07
2755.15
2668.56
2578.47
2499.73
2425.97
2357.97
2297.84
2242.27
2189.22
2140.8
2096.79
2054.48
2012.76
1972.14
1933.8
1899.57
1868.47
1838.65
1809.77
1779.21
1747.21
1714.55
1681.75
1649.25
1618.57
1589.06
1559.85
1531.87
1505.5
1480.13
1453.43
1422.55
1386
1343.79
1295.44
1242.26
1187.34
1133.51
1078.71
1023.02
962.71
900.935
854.596
816.459
785.256
759.91
738.948
720.45
703.793
688.815
675.38
663.105
651.509
640.445
630.125
620.404
610.431
599.822
588.801
577.516
566.176
554.878
543.844
533.418
523.804
515.037
506.884
498.992
491.015
482.577
473.423
463.695
453.617
443.408
433.312
423.531
414.16
405.195
396.658
388.639
381.233
374.373
367.956
361.883
356.205
351.013
346.417
342.502
339.277
336.689
334.659
333.123
332.035
331.376
331.115
331.229
331.672
332.382
333.306
334.424
335.779
337.424
339.399
341.706
344.301
347.201
350.359
353.784
357.732
362.367
367.631
373.097
378.542
384.996
392.331
400.341
409.139
418.847
3171.74
3188.38
3102.52
2980.11
2817.69
2635.36
2474.09
2319.02
2211.5
2106.87
2008.94
1920.76
1847.75
1788.07
1736.96
1692.78
1656.63
1627.52
1602.93
1580.54
1560.21
1545.25
1537.13
1533.99
1534.95
1539.73
1547.69
1560.34
1578.55
1605.51
1643.82
1693.62
1755.57
1828.39
1911.64
2004.62
2105.23
2207.36
2307.6
2393.72
2450.13
2469.22
2457.82
2422.88
2359.87
2255.83
2099.42
1901.23
1690.84
1498.47
1337.73
1211.45
1114.57
1039.71
979.676
930.041
890.069
858.001
831.914
810.163
791.23
774.339
758.771
743.88
729.655
716.236
703.547
691.024
677.935
665.071
653.747
644.685
637.153
630.443
623.832
616.723
608.8
600.053
589.876
578.071
565.369
552.103
538.435
524.662
511.156
498.17
485.864
474.408
463.961
454.337
445.029
436.001
427.573
420.145
413.906
408.772
404.561
401.105
398.274
395.972
394.081
392.554
391.323
390.419
389.861
389.724
389.962
390.541
391.628
393.095
394.899
397.245
399.936
402.475
405.139
409.091
414.938
420.769
425.527
430.487
437.316
445.457
454.257
463.886
475.429
2824.35
2786.1
2647.59
2505.97
2382.44
2264.64
2161.7
2064.71
1974.93
1904.26
1839.88
1785.35
1742.38
1705.9
1673.85
1646.26
1621.26
1599.55
1582.05
1570.23
1565.04
1568.45
1579.99
1599.92
1628.28
1666.47
1713.81
1770.92
1842
1930.86
2045.51
2194.79
2383.2
2619.22
2909.73
3267.12
3678.93
4107.33
4517.67
4881.35
5136.18
5246.92
5299.9
5291.06
5190.91
4967.57
4624.15
4235.14
3755.81
3223.33
2721.63
2276.74
1926.34
1651.3
1443.26
1291.49
1180.14
1096.5
1032.72
982.592
942.755
911.547
886.724
866.037
847.134
829.276
812.3
797.3
785.588
776.343
768.734
762.812
759.139
757.034
755.662
754.147
751.814
751.073
747.031
736.691
722.736
706.213
686.923
664.867
640.485
615.781
591.919
568.541
546.374
526.246
508.801
493.952
481.396
470.663
461.534
453.789
447.364
442.112
437.882
434.575
432.102
430.406
429.355
428.816
428.574
428.575
428.82
429.321
430.104
431.289
432.942
435.063
437.375
439.585
442.108
446.072
452.563
460.216
466.786
473.076
480.95
490.124
500.6
512.676
526.676
2509.63
2440.76
2326.62
2231.03
2173.77
2108.34
2041.32
1969.07
1893.96
1829.37
1778.66
1744.54
1717.94
1691.7
1668.1
1648.73
1631.06
1616.12
1608.37
1609.85
1621.18
1644.69
1682.4
1735.43
1805.07
1892.2
2000.65
2136.29
2308.99
2525.83
2803.1
3177.37
3693.47
4380.81
5243.29
6200.68
7139.04
7985.06
8665.38
9150.83
9445.89
9545.67
9479.1
9270.61
8989.41
8655.43
8224.79
7668.38
7031.88
6381.06
5733.49
5039.36
4234.95
3438.21
2753.05
2222.11
1844.94
1584.84
1402.49
1273.01
1183.33
1119.93
1071.17
1031.04
999.334
975.2
956.757
940.741
928.812
920.433
914.78
911.147
908.894
907.368
906.147
904.478
902.005
895.775
887.813
877.61
866.451
855.33
843.993
831.698
817.466
798.584
773.565
742.914
706.814
666.219
626.811
593.296
564.519
541.861
525.073
512.456
502.708
495.129
489.308
484.899
481.625
479.407
477.824
476.615
475.715
475.235
475.123
475.385
476.052
477.189
478.892
481.283
484.005
486.703
489.503
493.466
500.505
508.686
515.725
522.601
531.503
542.278
554.616
568.566
584.269
2382.44
2319.94
2239.37
2161.42
2113.71
2049.15
1982.8
1918.39
1856.8
1800.89
1759.05
1732.17
1708.66
1687.16
1671.17
1658.35
1650.41
1649.65
1658.53
1682.82
1724.88
1788.18
1875.3
1990.16
2136.5
2318.55
2544.34
2823.09
3173.91
3638.25
4271.57
5130.82
6209.71
7400.41
8490.31
9299.72
9866.57
10235
10432.9
10492.9
10478.6
10439.7
10389.6
10297.1
10126.4
9881.67
9596.27
9223.43
8738.53
8174.99
7583.44
7055.16
6549.38
5934.05
5110.36
4191.55
3350.83
2678.35
2176.96
1828.96
1592.87
1434.27
1329.89
1259.18
1217.24
1189.16
1173.75
1162.8
1155.52
1144.34
1129.47
1114.26
1099.77
1085.14
1069.59
1053.19
1035.41
1018.29
1002.83
988.476
974.271
960.891
948.459
936.859
926.081
916.278
907.268
898.424
888.477
874.268
847.643
802.652
744.249
683.079
635.731
599.74
574.601
557.612
545.348
536.279
529.537
524.409
520.889
518.792
517.269
516.105
515.302
514.877
514.953
515.758
517.311
519.602
522.15
524.725
527.764
532.491
540.318
549.401
557.541
565.842
575.228
586.103
599.065
614.028
630.921
2401.45
2330.82
2258
2168.7
2106.27
2030.23
1954.42
1888.6
1832.02
1785.78
1747.65
1717.09
1691.96
1674.7
1663.72
1661.65
1670.69
1690.99
1731.46
1795.41
1886.41
2011.3
2175.08
2380.95
2629.35
2930.34
3296.1
3762.67
4395.57
5256.23
6348.81
7467.69
8350.77
9044.37
9589.17
9976.26
10226.2
10343.6
10339
10262.9
10096.3
9943.11
9819.17
9708.15
9636.21
9565.42
9458.88
9323.06
9125.66
8809.2
8390.21
7940.68
7529.65
7124.62
6690.72
6159.04
5412.41
4505.56
3639.48
2936.16
2394.1
2015.2
1778.29
1641.15
1568.85
1521.81
1485.08
1449.39
1416.61
1384.15
1351.33
1322.57
1293.02
1261.59
1229.69
1199.21
1171.85
1146.85
1123.42
1101.5
1081.47
1062.98
1045.97
1030.64
1017.1
1005.2
994.849
985.764
977.671
971.448
967.563
963.918
955.725
933.395
879.468
807.437
732.402
674.955
633.441
605.83
588.137
576.233
568.528
563.132
559.467
556.886
555.178
553.665
552.494
552.17
553.003
555.059
557.671
560.119
562.46
566.883
574.401
583.285
590.923
599.535
610.003
622.034
635.792
651.283
668.419
2480.26
2384.22
2295.46
2190.03
2105.48
2010.9
1924.27
1848.93
1793.62
1751.66
1720.53
1698.59
1684.4
1677
1677.91
1692.54
1724.42
1775.98
1859.18
1976.17
2132.63
2332.41
2576.3
2863.21
3203.12
3614.65
4149
4875.05
5800.88
6715.69
7505.75
8238.16
8839.07
9304.82
9638.3
9875.33
10049.6
10206.4
10453.2
10560.9
10470.6
10236.4
9961.96
9691.35
9466.56
9298.66
9189.8
9111.5
9030.35
8904.74
8692.06
8390.26
8055.41
7704.07
7340.02
7074.64
6735.8
6139.7
5381.71
4531.23
3726.58
3071.18
2577.27
2255.79
2041.18
1893.89
1795.03
1720.48
1664.64
1621.36
1580.78
1537.48
1494.11
1451.01
1410.04
1371.89
1335.57
1300.67
1267.49
1237.07
1208.98
1182.42
1157.59
1134.95
1114.49
1095.95
1079.4
1065.21
1053.47
1044.06
1036.8
1031.45
1028.23
1028.36
1030.82
1028.49
1011.02
945.754
858.134
775.545
712.284
668.108
639.132
620.742
608.757
600.926
595.902
592.631
590.55
589.67
590.061
591.541
593.586
595.691
597.69
601.682
608.713
616.817
624.116
633.359
643.572
654.932
668.393
683.802
700.597
2599.82
2456.67
2345.61
2223.04
2112.14
2001.77
1903.64
1819.91
1758.26
1718.52
1694.15
1684.58
1681.41
1687.7
1704.8
1739.69
1798.76
1889.8
2018.09
2187.79
2398.03
2638.19
2916.37
3244.35
3638.02
4145.98
4828.52
5599.59
6322.45
7046.87
7749.8
8365.88
8922.73
9450.11
9926.92
10372.4
10723.8
11047.3
11356.9
11638.8
11761.6
11647.1
11238
10731.5
10230.8
9801.33
9474.36
9241.87
9090.26
8992.44
8901.58
8760.84
8511.79
8187.33
7828.84
7516.22
7270.68
7014.98
6684.4
6166.34
5392.06
4488.83
3700.76
3058.02
2616.28
2323.25
2133.89
2006.98
1925.69