/*--------------------------------*- C++ -*----------------------------------*\
| =========                 |                                                 |
| \\      /  F ield         | OpenFOAM: The Open Source CFD Toolbox           |
|  \\    /   O peration     | Version:  2112                                  |
|   \\  /    A nd           | Website:  www.openfoam.com                      |
|    \\/     M anipulation  |                                                 |
\*---------------------------------------------------------------------------*/
FoamFile
{
    version     2.0;
    format      ascii;
    arch        "LSB;label=32;scalar=64";
    class       surfaceScalarField;
    location    "0.0045";
    object      phi;
}
// * * * * * * * * * * * * * * * * * * * * * * * * * * * * * * * * * * * * * //

dimensions      [1 0 -1 0 0 0 0];

oriented        oriented;

internalField   nonuniform List<scalar> 
27436
(
-0.533357
8.19274
-0.0931268
7.47159
-0.0834876
7.78627
-0.0690881
7.78644
-0.0683548
7.79223
-0.0542783
7.7823
-0.0429689
7.78466
-0.0282986
7.78228
-0.0198017
7.78781
-0.0144607
7.7908
-0.00800258
7.79052
0.00127745
7.78808
0.0143739
7.78375
0.0312748
7.78081
0.0472593
7.78172
0.0545764
7.78909
0.054285
7.7949
0.0645092
7.78742
0.0744936
7.78564
0.0945192
7.77772
0.0962537
7.79117
0.111481
7.78581
0.123477
7.78285
0.57234
7.46031
8.21342
-0.247272
8.44001
-0.0963981
7.32071
-0.0820926
7.77195
-0.0566003
7.76093
-0.0551508
7.79079
-0.0487487
7.77592
-0.0392254
7.77512
-0.0353615
7.77725
-0.027103
7.77238
-0.00982614
7.77348
0.00100322
7.77997
0.0148896
7.7741
0.0149118
7.78374
0.0211926
7.77454
0.0207505
7.78216
0.0380945
7.77174
0.0499006
7.78309
0.072471
7.76482
0.0678179
7.79027
0.0748809
7.77065
0.0718922
7.79411
0.102898
7.75483
0.11427
7.77125
0.268449
7.3065
8.48835
-0.227292
8.66731
-0.141359
7.2348
-0.120946
7.75155
-0.107892
7.74784
-0.0981142
7.781
-0.09256
7.77021
-0.0876739
7.77007
-0.0803957
7.76928
-0.0694051
7.76372
-0.062978
7.76372
-0.0359483
7.75254
-0.0143895
7.75222
-0.0127024
7.78208
-0.0110773
7.77292
-0.00676787
7.77786
0.0151663
7.74981
0.0282828
7.76996
0.0516908
7.74145
0.0549476
7.78701
0.0537397
7.77186
0.0617063
7.78614
0.0782085
7.73833
0.100554
7.74859
0.191985
7.21722
8.68362
-0.169647
8.83697
-0.139605
7.20477
-0.134261
7.7462
-0.111967
7.72556
-0.104308
7.77331
-0.097864
7.76361
-0.0906216
7.76282
-0.081757
7.75983
-0.0667805
7.75129
-0.0553742
7.75064
-0.029077
7.72622
-0.00503764
7.7281
0.00288331
7.77418
0.00548408
7.77033
0.0148695
7.76849
0.0384954
7.72624
0.0528946
7.75555
0.075833
7.71854
0.0879765
7.77472
0.0867477
7.77309
0.0913617
7.78152
0.117886
7.7117
0.111281
7.75511
0.161931
7.16709
8.84108
-0.0736604
8.91063
-0.0364882
7.16758
-0.0915055
7.8012
-0.0580701
7.69213
-0.0585318
7.77377
-0.057006
7.76198
-0.0540278
7.75985
-0.04746
7.75236
-0.0358984
7.74026
-0.026298
7.73958
-0.00203207
7.70197
0.0203315
7.70558
0.0270326
7.76748
0.0282964
7.76909
0.0359494
7.76086
0.0578745
7.7044
0.0677427
7.74566
0.0879353
7.69842
0.0995333
7.7632
0.0928297
7.77981
0.0928827
7.78148
0.123263
7.68125
0.0897688
7.78849
0.0979292
7.15825
8.93183
0.118357
8.79226
0.0438646
7.24205
-0.0485549
7.8936
-0.00643716
7.65
-0.0201078
7.78737
-0.0264429
7.76816
-0.0282525
7.76171
-0.0254468
7.74909
-0.0190932
7.7315
-0.0141004
7.73459
0.00496743
7.68267
0.0231723
7.68728
0.0275041
7.76313
0.0246388
7.77198
0.0287945
7.75673
0.0451418
7.68813
0.0494321
7.74136
0.0633633
7.68452
0.0733788
7.75313
0.0626832
7.79052
0.0477279
7.79647
0.0860433
7.64293
-0.0142232
7.8888
-0.0202988
7.16423
8.90906
0.304535
8.48771
0.136313
7.41026
-0.00420917
8.03458
0.0290105
7.61626
-0.00900603
7.82531
-0.0395928
7.79854
-0.0642397
7.78635
-0.0825036
7.76769
-0.093882
7.73919
-0.111367
7.75347
-0.113264
7.68444
-0.115928
7.68994
-0.126432
7.77359
-0.147254
7.79284
-0.159835
7.76936
-0.162573
7.69096
-0.182823
7.76161
-0.190493
7.69228
-0.200164
7.76288
-0.234733
7.82512
-0.267742
7.82954
-0.288203
7.66336
-0.355249
7.95608
-0.657905
7.46685
8.25103
0.87341
7.6143
0.522066
7.7616
0.414921
8.14177
0.339644
7.69147
0.280034
7.88484
0.229406
7.849
0.188413
7.82734
0.156492
7.80111
0.130586
7.76697
0.100696
7.78596
0.0808597
7.70437
0.0655137
7.70522
0.041109
7.79795
0.00640185
7.8276
-0.0188984
7.79473
-0.0414099
7.71357
-0.0723484
7.79256
-0.0968749
7.71689
-0.121294
7.78729
-0.171
7.87486
-0.233085
7.89172
-0.283051
7.71332
-0.407972
8.08129
-0.693977
7.75279
7.56031
0.593685
7.02065
0.410093
7.94519
0.240965
8.31091
0.196395
7.73615
0.143954
7.93723
0.105027
7.88772
0.0809585
7.85139
0.0697222
7.81391
0.0667854
7.78196
0.0639441
7.7915
0.0674781
7.70099
0.0749235
7.6977
0.0811437
7.79165
0.0770254
7.8318
0.0781757
7.79369
0.0743551
7.71749
0.0709261
7.79605
0.0698012
7.71814
0.0624732
7.79487
0.0251955
7.91227
-0.0312304
7.94832
-0.0498539
7.7321
-0.220678
8.25262
-0.372942
7.9054
7.19138
-3.03911
10.0598
-3.37275
8.27883
-2.75217
7.69063
-2.60882
7.59289
-2.28909
7.61706
-1.97982
7.57827
-1.70319
7.57481
-1.40748
7.51935
-1.10553
7.49256
-0.787114
7.47282
-0.504094
7.41788
-0.210537
7.40411
0.100892
7.48018
0.408849
7.52398
0.703692
7.499
0.972745
7.44855
1.28431
7.48461
1.56098
7.44165
1.89811
7.45794
2.2047
7.60583
2.50583
7.64744
2.63434
7.60375
3.21418
7.67325
2.93994
8.18054
10.132
-4.23134
14.291
-4.33684
8.38469
-4.10086
7.4558
-3.76433
7.2556
-3.33639
7.18821
-2.90059
7.1436
-2.43246
7.10838
-1.96845
7.0528
-1.50481
7.02338
-1.02045
6.98667
-0.577352
6.97483
-0.124455
6.95128
0.347535
7.00825
0.82836
7.04339
1.2838
7.04381
1.70423
7.0283
2.16345
7.02558
2.60584
6.9995
3.06209
7.00195
3.58943
7.07873
4.06825
7.16892
4.3904
7.28186
4.5745
7.48952
4.52227
8.23382
14.6529
-2.69702
16.9876
-4.88629
10.5752
-4.89047
7.46212
-4.17991
6.54287
-3.79451
6.80059
-3.33617
6.68847
-2.81618
6.59248
-2.29333
6.52378
-1.77646
6.48818
-1.25736
6.46721
-0.751543
6.46968
-0.256121
6.45617
0.265136
6.48733
0.792018
6.51695
1.30994
6.52633
1.78739
6.55121
2.27597
6.53738
2.76812
6.50777
3.26268
6.50777
3.77162
6.57024
4.26455
6.67652
5.0458
6.50112
4.82081
7.71477
2.73083
10.3239
17.3833
2.36219
14.6251
0.489447
12.4476
-4.82243
12.7779
-3.83224
5.54986
-4.01155
6.97422
-3.53131
6.2135
-2.98701
6.05579
-2.48066
6.01375
-1.94931
5.94721
-1.40773
5.9285
-0.863616
5.92701
-0.333531
5.92674
0.221406
5.93314
0.785407
5.95378
1.33935
5.9732
1.88428
6.00707
2.39777
6.02464
2.86346
6.04299
3.35335
6.01871
3.87254
6.05178
3.78621
6.76328
4.89487
5.39317
-0.334066
12.9445
-2.37381
12.3632
15.0101
2.46991
12.1555
3.3242
11.5929
3.64558
12.4613
-0.684663
9.88418
-4.30109
10.5856
-3.65017
5.57201
-3.21942
5.63617
-2.75133
5.55124
-2.20219
5.40125
-1.64535
5.37766
-1.0881
5.37255
-0.544788
5.38567
0.017081
5.37377
0.594228
5.37909
1.16708
5.40235
1.7395
5.4367
2.28685
5.47929
2.7221
5.60975
3.01827
5.72294
3.58964
5.48556
-0.297609
10.6538
-4.58228
9.68058
-3.93082
12.2942
-2.93759
11.3695
12.0727
1.72847
10.428
3.52267
9.80047
5.00393
10.9833
5.43565
9.45637
4.79087
11.2349
0.708394
9.65301
-1.55823
7.90875
-1.78697
5.79276
-1.48093
5.10096
-1.06372
4.96347
-0.586488
4.89656
-0.0884372
4.88888
0.42051
4.86601
0.938342
4.8624
1.45546
4.88661
1.92697
4.96686
2.29037
5.11768
2.11826
5.78547
-0.308049
8.15074
-4.25195
9.43007
-4.64808
11.0552
-4.14935
9.18371
-2.64821
10.7944
-1.235
9.95795
10.8386
0.769499
9.66013
1.72513
8.84737
3.04786
9.66301
3.57426
8.93657
3.05021
11.7734
1.73821
10.9734
0.384429
9.27019
-0.108215
6.30873
-0.0889776
5.10846
-0.00756758
4.91285
0.0567042
4.86447
0.102566
4.87656
0.164884
4.83783
0.234591
4.8268
0.310236
4.8447
0.372466
4.93719
0.389029
5.13094
0.0377899
6.15815
-1.25022
9.46164
-2.37863
10.5663
-2.74187
11.4343
-2.32223
8.77287
-1.33975
9.8153
-0.381238
9.00164
10.4582
1.73095
7.933
2.30489
8.27871
2.73644
9.24101
2.29109
9.38852
2.7954
11.2817
3.03887
10.7417
2.11643
10.1957
1.08131
7.3582
0.690163
5.51269
0.461387
5.15652
0.292769
5.04878
0.101514
5.08427
-0.0951315
5.051
-0.288075
5.03663
-0.514856
5.08905
-0.828846
5.26952
-1.44366
5.76073
-2.74304
7.47217
-3.44292
10.1736
-2.96847
10.099
-2.66615
11.1443
-3.18601
9.30434
-2.83855
9.4816
-2.34067
8.50856
8.12129
2.09259
5.84646
2.64799
7.73339
2.01728
9.8869
1.29289
10.1254
1.58392
11.0041
1.8313
10.5007
2.54672
9.47607
2.34638
7.55853
1.64923
6.20589
1.07152
5.72163
0.51577
5.59001
-0.0223178
5.60686
-0.584218
5.59662
-1.19423
5.6302
-1.81847
5.6962
-2.46747
5.90183
-3.12084
6.40513
-3.33122
7.67685
-2.62043
9.46002
-2.8488
10.3334
-2.5018
10.8116
-3.35013
10.1588
-3.72481
9.87949
-2.66325
7.45917
5.46402
3.25726
2.59454
5.58587
5.41109
6.44449
9.03679
6.33085
10.2454
6.25579
11.0841
5.77939
10.9779
5.07899
10.1614
3.97257
8.64507
2.85867
7.29441
1.99497
6.56034
1.22641
6.33008
0.531798
6.26963
-0.158073
6.25287
-0.825311
6.26369
-1.51813
6.35612
-2.26245
6.61545
-3.21407
7.32702
-4.15874
8.59488
-4.77349
10.0594
-5.24868
10.807
-5.34683
10.9144
-5.47845
10.296
-4.98262
9.39309
-2.90977
5.39496
2.56091
1.43089
1.16614
3.60192
3.24843
4.83297
7.81598
5.44816
9.63328
5.97019
10.5612
5.97909
10.9664
5.26738
10.8599
4.1153
9.78162
2.93733
8.45601
1.93003
7.56014
1.06726
7.19064
0.250342
7.08417
-0.545463
7.04629
-1.35164
7.0677
-2.19763
7.20022
-3.19186
7.6036
-4.38093
8.5
-5.59374
9.78919
-6.36863
10.8199
-6.41823
10.8511
-6.02253
10.5174
-5.4492
9.72605
-3.73545
7.6925
-1.4281
3.09907
1.13593
0.0146121
1.15255
-0.00429495
3.27286
1.33703
6.48217
2.59063
8.38058
3.39967
9.74879
3.72947
10.6329
3.59175
10.9884
2.9988
10.3645
2.2236
9.22229
1.47985
8.30209
0.783781
7.89133
0.112483
7.76133
-0.568264
7.73356
-1.24832
7.75413
-1.96858
7.92588
-2.75358
8.38856
-3.57604
9.31386
-4.20453
10.4071
-4.33668
10.9406
-3.95076
10.4585
-3.06932
9.63319
-1.64791
8.30587
-0.179959
6.23333
-0.0857868
3.01047
1.05147
-0.763529
1.91677
-0.982114
3.49559
-0.0921328
5.59339
0.775965
7.51297
1.59449
8.92634
2.06158
10.1629
2.19058
10.8539
2.00365
10.5456
1.5941
9.62685
1.11891
8.77724
0.656139
8.35864
0.175845
8.24815
-0.29867
8.21576
-0.78397
8.24626
-1.2518
8.39841
-1.72238
8.85996
-2.115
9.70261
-2.26322
10.5511
-2.09397
10.7646
-1.60445
9.96329
-0.74369
8.76873
0.143681
7.41992
1.00178
5.37708
0.715513
3.30275
1.76905
-0.712616
2.63652
-1.37049
4.1567
-1.28709
5.50981
-0.616802
6.84264
0.103724
8.20296
0.510371
9.75432
0.838926
10.5226
0.987603
10.3929
0.935702
9.67593
0.750177
8.96243
0.495259
8.6161
0.23911
8.50957
-0.0349322
8.49635
-0.289056
8.50578
-0.533868
8.64567
-0.691969
9.01773
-0.696074
9.70493
-0.508012
10.3615
-0.169927
10.4222
0.258712
9.53214
0.937041
8.08714
1.5923
6.76451
1.57764
5.39132
0.724331
4.16084
2.49944
-0.642512
3.28499
-1.68134
5.19693
-1.9254
5.75284
-1.74143
6.65792
-1.4117
7.87038
-0.863078
9.20628
-0.385888
10.0448
-0.069168
10.072
0.0760511
9.52736
0.0997423
8.93831
0.0694169
8.64726
-0.0158782
8.59845
-0.108098
8.59312
-0.197778
8.59904
-0.230103
8.67905
-0.207179
8.99373
-0.0648547
9.56118
0.256042
10.0409
0.746044
9.93124
1.27707
8.99986
1.64423
7.71825
1.85108
6.55656
1.61469
5.62641
0.638078
5.13798
3.14075
-0.429386
3.72118
-1.32827
6.09429
-1.82147
6.24565
-1.90226
6.73811
-1.72782
7.69498
-1.30575
8.78565
-0.838029
9.57678
-0.451233
9.68108
-0.195554
9.26905
-0.0726532
8.81399
-0.0447361
8.61869
-0.0363815
8.59195
-0.0399278
8.59894
-0.0289968
8.59019
0.00011548
8.64956
0.13198
8.86025
0.403451
9.28843
0.815884
9.62812
1.29331
9.45404
1.69522
8.59647
1.87755
7.5353
1.79154
6.64125
1.26139
6.15508
0.479048
5.91587
3.62125
-0.42223
4.1489
-1.23596
6.90488
-1.78618
6.79729
-2.04317
6.99429
-1.96665
7.61752
-1.60562
8.42622
-1.16786
9.13831
-0.743711
9.25273
-0.427526
8.94989
-0.230937
8.6159
-0.0844754
8.47109
0.0211788
8.48648
0.129221
8.49142
0.235707
8.48396
0.392559
8.49189
0.612157
8.63923
0.9434
8.95509
1.37461
9.19584
1.79471
9.03454
2.1343
8.25667
2.21369
7.45622
1.93936
6.91173
1.42118
6.67268
0.586622
6.7384
4.20895
-0.635155
4.78701
-1.43293
7.70571
-1.888
7.25383
-2.26608
7.37159
-2.2671
7.61916
-2.04077
8.2008
-1.64162
8.73809
-1.19238
8.79993
-0.823021
8.57875
-0.558739
8.34959
-0.385692
8.29662
-0.210236
8.31061
-0.0489871
8.32957
0.127974
8.30654
0.311488
8.30726
0.571511
8.37779
0.936288
8.58846
1.37486
8.75511
1.76664
8.64392
1.99887
8.0233
2.03238
7.42342
1.70942
7.23316
1.27461
7.10745
0.468859
7.54153
4.67564
-0.523705
5.30653
-1.19291
8.38621
-1.64912
7.71375
-1.97219
7.69418
-2.04858
7.69586
-1.84891
8.00183
-1.49361
8.38201
-1.10036
8.40465
-0.76159
8.23827
-0.501917
8.08861
-0.259474
8.05355
-0.0559165
8.10627
0.153275
8.11948
0.358698
8.10012
0.606934
8.05762
0.887583
8.09596
1.23646
8.23722
1.63497
8.35499
1.9719
8.3078
2.14115
7.85437
2.08678
7.47745
1.73667
7.58119
1.25341
7.59019
0.550475
8.24796
5.23389
-0.491955
5.79988
-1.15979
9.0624
-1.63061
8.1857
-1.81936
7.88187
-1.94261
7.82002
-1.85589
7.91577
-1.54637
8.07217
-1.15514
8.01153
-0.800367
7.88233
-0.496655
7.78372
-0.253893
7.81036
-0.00466978
7.8568
0.230331
7.88387
0.482429
7.84731
0.721653
7.81773
1.02383
7.79258
1.38977
7.87055
1.78533
7.95696
2.09636
7.9968
2.17122
7.77902
2.03805
7.61094
1.88786
7.73226
1.39274
8.08658
0.606928
9.04102
5.85417
-0.721221
6.52278
-1.32564
9.65991
-1.87799
8.73879
-2.04956
8.05377
-2.16791
7.93978
-2.08615
7.8356
-1.80154
7.78802
-1.45436
7.66348
-1.11935
7.54603
-0.83674
7.50093
-0.548971
7.523
-0.290524
7.59832
-0.0193854
7.61277
0.243476
7.58424
0.544257
7.51641
0.840471
7.49584
1.16259
7.54632
1.49883
7.62029
1.77506
7.72227
1.86762
7.68668
1.76326
7.71667
1.61007
7.88576
1.08586
8.60751
0.319406
9.8095
6.1853
-0.44254
6.9663
-1.15878
10.3698
-1.67978
9.26144
-1.79551
8.16897
-1.79531
7.94236
-1.74062
7.78132
-1.53239
7.5793
-1.2229
7.3529
-0.912069
7.23454
-0.604603
7.19355
-0.341053
7.26015
-0.0573732
7.31551
0.211761
7.34438
0.49373
7.30282
0.752695
7.25773
1.05584
7.19216
1.38218
7.2205
1.69927
7.30077
1.90241
7.51797
1.91859
7.67123
1.88642
7.74954
1.80761
7.96579
1.15486
9.26164
0.534769
10.4306
6.7225
-0.166074
7.13386
-0.720621
10.9214
-1.53777
10.0768
-1.61964
8.25144
-1.64985
7.97327
-1.56624
7.69832
-1.3482
7.36192
-1.1173
7.12098
-0.854918
6.97141
-0.608181
6.94757
-0.324405
6.97753
-0.0635617
7.05569
0.21091
7.07126
0.466529
7.0483
0.753252
6.97173
1.0117
6.93385
1.26957
6.96066
1.50257
7.06878
1.72253
7.29867
1.79971
7.59275
1.76995
7.78066
1.77521
7.95949
1.05612
9.9865
0.422183
11.0673
7.14832
-0.421355
7.55829
-0.883188
11.3803
-1.75783
10.9512
-1.77478
8.26991
-1.75621
7.95669
-1.6626
7.60466
-1.49416
7.1923
-1.2459
6.87279
-1.00604
6.73187
-0.729996
6.67231
-0.488858
6.73774
-0.214455
6.78288
0.0481292
6.81026
0.326597
6.7713
0.571519
6.7275
0.840616
6.66505
1.09437
6.70676
1.33247
6.8286
1.48988
7.14127
1.55713
7.52564
1.54336
7.79601
1.41791
8.08891
0.597807
10.8141
0.258906
11.4048
7.40602
-0.0712529
7.63453
-0.461016
11.7678
-1.10664
11.5959
-1.50354
8.66741
-1.52956
7.98347
-1.40249
7.47729
-1.21189
7.00339
-1.0055
6.66562
-0.778042
6.50426
-0.577565
6.47275
-0.312501
6.4739
-0.0645179
6.53609
0.203461
6.54386
0.449049
6.52702
0.716737
6.46092
0.932611
6.44912
1.14525
6.49299
1.35276
6.62084
1.5433
6.95
1.65955
7.40709
1.63187
7.82465
1.30948
8.40955
0.609967
11.5128
0.371162
11.6438
7.77429
0.0268974
7.6117
-0.0882434
11.8827
-0.785844
12.2946
-1.40754
9.28999
-1.32989
7.90664
-1.25556
7.40234
-1.10752
6.85373
-0.931659
6.49019
-0.74417
6.31758
-0.501923
6.23123
-0.303568
6.27665
-0.06362
6.29746
0.163822
6.31772
0.405692
6.28642
0.60251
6.26479
0.828679
6.22339
1.0261
6.29504
1.20255
6.44362
1.34363
6.80957
1.42
7.32953
1.59401
7.64943
0.851008
9.15366
0.238501
12.1283
0.188719
11.6908
7.95935
-0.316312
7.93205
-0.355313
11.9219
-0.745576
12.6857
-1.43894
9.9829
-1.4191
7.88662
-1.33409
7.31582
-1.14834
6.66889
-0.97457
6.31605
-0.792926
6.13554
-0.634761
6.07378
-0.403221
6.04581
-0.193431
6.08841
0.040502
6.08482
0.253793
6.07403
0.489703
6.02956
0.658165
6.05499
0.830926
6.12155
0.997567
6.27428
1.18104
6.6237
1.23793
7.26904
1.16927
7.71548
0.328491
9.99319
-0.0913535
12.5518
-0.0111305
11.6102
7.94037
-0.163971
8.09959
0.0265014
11.7351
-0.237097
12.9499
-1.03515
10.78
-1.17146
8.02193
-1.09353
7.23683
-0.978763
6.55431
-0.809886
6.14645
-0.644877
5.97057
-0.433047
5.86237
-0.260362
5.87387
-0.0432791
5.87223
0.159023
5.88333
0.375867
5.85806
0.542768
5.86341
0.743988
5.85403
0.916029
5.94854
1.0806
6.11039
1.18138
6.52389
1.32671
7.12208
1.14815
7.8914
0.342505
10.7915
0.126448
12.7727
0.186481
11.5569
8.12715
0.00102155
8.10086
0.145094
11.594
0.224073
12.87
-0.504749
11.5063
-1.10547
8.62161
-0.962937
7.09365
-0.860132
6.45032
-0.725973
6.01181
-0.563217
5.80735
-0.429738
5.72922
-0.232137
5.67676
-0.056998
5.69753
0.141401
5.68561
0.311892
5.68817
0.508807
5.6667
0.647562
5.71544
0.794281
5.80172
0.938685
5.96056
1.06334
6.39633
1.2481
6.93513
0.616731
8.51916
-0.0726751
11.4733
-0.0657469
12.7686
0.0282551
11.473
8.1684
-0.224501
8.32716
-0.205046
11.5772
0.0159827
12.6488
-0.408246
11.9271
-1.0118
9.2235
-0.998672
7.07927
-0.914753
6.36598
-0.794513
5.89058
-0.663473
5.67594
-0.472865
5.53895
-0.32693
5.53128
-0.141797
5.51298
0.0241907
5.52024
0.208206
5.50488
0.349771
5.52598
0.533676
5.5316
0.678385
5.65696
0.772063
5.86977
0.801055
6.36781
0.777331
6.95924
0.00946403
9.28282
-0.456306
11.9291
-0.12411
12.4443
-0.062408
11.4223
8.1187
-0.0631913
8.39349
0.0240065
11.4914
0.41701
12.2557
0.136825
12.2027
-0.637508
9.996
-0.900996
7.34107
-0.702313
6.1672
-0.628174
5.81596
-0.489
5.53687
-0.370723
5.42124
-0.194806
5.35617
-0.0404072
5.35919
0.13536
5.34518
0.286192
5.35474
0.465883
5.34667
0.58582
5.41243
0.708434
5.53433
0.80968
5.76711
1.03434
6.14261
0.752474
7.23638
-0.0566224
10.0873
-0.198333
12.0619
0.163251
12.0867
0.153304
11.4402
8.28608
0.0525894
8.34411
0.115756
11.4288
0.409892
11.9606
0.557687
12.0514
-0.0898514
10.6387
-0.614026
7.86219
-0.609269
6.16152
-0.545994
5.75169
-0.462903
5.45375
-0.307311
5.26635
-0.186323
5.23556
-0.0331756
5.20673
0.10614
5.20664
0.262731
5.19892
0.379546
5.23068
0.539654
5.25268
0.631558
5.44264
0.71717
5.67988
0.734085
6.12485
0.242981
7.72793
-0.425522
10.7507
-0.267358
11.8959
0.0196824
11.7992
0.0431529
11.4178
8.33319
-0.105519
8.45356
-0.0795907
11.4045
0.142216
11.7376
0.481268
11.7093
-0.00476963
11.1208
-0.570678
8.424
-0.681231
6.27171
-0.57394
5.643
-0.477882
5.35775
-0.390734
5.17994
-0.249683
5.09568
-0.122003
5.07999
0.0231701
5.06246
0.152835
5.07031
0.299877
5.08464
0.381615
5.17219
0.457768
5.36704
0.570503
5.56851
0.35644
6.33876
-0.367647
8.45648
-0.76805
11.1475
-0.373854
11.5076
-0.189213
11.6171
-0.13029
11.3581
8.19339
0.036543
8.41818
0.0820223
11.3589
0.256719
11.5615
0.641574
11.3227
0.623486
11.1337
-0.0774026
9.11823
-0.471197
6.66462
-0.466835
5.6371
-0.378369
5.26998
-0.254839
5.05793
-0.15582
4.99744
-0.0250468
4.95021
0.0976714
4.94081
0.228365
4.94069
0.32457
4.98944
0.457678
5.04013
0.559884
5.26576
0.537881
5.5897
0.14046
6.73751
-0.532329
9.13632
-0.438583
11.0495
-0.105455
11.1743
0.0661322
11.44
0.113402
11.3133
8.29384
0.164158
8.25386
0.28616
11.2362
0.402604
11.4429
0.633648
11.0904
0.88652
10.8786
0.250516
9.75323
-0.20069
7.11456
-0.337294
5.77121
-0.278982
5.21189
-0.225641
5.00527
-0.129457
4.90229
-0.0261466
4.84804
0.0929903
4.82297
0.194684
4.84026
0.29643
4.88884
0.35196
4.98578
0.434249
5.18469
0.29379
5.73124
-0.202966
7.23566
-0.826138
9.75646
-0.463309
10.6827
-0.235875
10.9409
-0.128087
11.3297
-0.0415102
11.2246
8.23421
-0.0239569
8.27694
0.0603606
11.1492
0.144958
11.3569
0.389224
10.8459
0.818014
10.4444
0.633267
9.93587
-0.0416647
7.78757
-0.363156
6.09112
-0.337182
5.18656
-0.254369
4.92376
-0.176901
4.82619
-0.0828346
4.75531
0.0133764
4.72804
0.107325
4.74763
0.177453
4.82004
0.244978
4.92051
0.248349
5.18182
-0.112194
6.09437
-0.879979
8.01111
-0.959549
9.83005
-0.587798
10.3041
-0.344617
10.6925
-0.284578
11.2679
-0.124656
11.0564
8.10177
0.103406
8.17355
0.293649
10.9562
0.350265
11.2988
0.517719
10.6775
0.807047
10.1545
0.948112
9.79449
0.330522
8.404
-0.0828665
6.50257
-0.191573
5.29495
-0.162749
4.8956
-0.0913033
4.75586
-0.0170093
4.68229
0.0679123
4.64454
0.143651
4.67334
0.221678
4.7433
0.253637
4.88898
0.103272
5.33348
-0.399304
6.59872
-0.925597
8.53628
-0.685411
9.58612
-0.404104
10.019
-0.229762
10.5084
-0.1737
11.206
-0.0174559
10.8869
8.09207
0.153504
8.02056
0.377963
10.7293
0.449321
11.2259
0.577117
10.5517
0.804989
9.92523
1.21661
9.38256
0.925789
8.69305
0.166144
7.2602
-0.0808041
5.54275
-0.0969718
4.91305
-0.0481949
4.70834
0.00510577
4.63032
0.0561848
4.59517
0.120298
4.61063
0.168744
4.69626
0.148492
4.91134
-0.119671
5.60285
-0.847064
7.32955
-1.0611
8.7495
-0.692612
9.21334
-0.442967
9.76381
-0.308539
10.3779
-0.242151
11.1422
-0.0562622
10.6966
8.04408
0.0323582
7.99112
0.231419
10.5295
0.337983
11.118
0.4094
10.4767
0.606713
9.72676
0.892258
9.0973
0.950784
8.63445
0.540825
7.66863
0.0247749
6.05908
-0.116007
5.05508
-0.0854463
4.6788
-0.0442467
4.59052
-0.00849385
4.56116
0.0341029
4.5695
0.0449666
4.68702
-0.110159
5.068
-0.746298
6.23896
-1.15089
7.73291
-0.987978
8.58621
-0.737616
8.95918
-0.569188
9.59469
-0.517475
10.3229
-0.3942
11.02
-0.153217
10.4603
7.90392
0.0660418
7.92962
0.305667
10.2891
0.459168
10.9625
0.550274
10.384
0.687953
9.58954
0.882978
8.9049
1.2316
8.28413
0.923832
7.97538
0.262055
6.72119
0.0309977
5.28776
-0.0010245
4.71186
0.0102225
4.58055
0.0162746
4.5569
0.0289949
4.55811
-0.0306427
4.7479
-0.299199
5.3371
-0.853708
6.79286
-1.14206
8.02093
-0.798657
8.24216
-0.645979
8.80617
-0.525772
9.47633
-0.435134
10.2396
-0.277355
10.8716
-0.0446805
10.2361
7.87345
0.0969563
7.83608
0.423646
9.96693
0.62809
10.7585
0.635443
10.3752
0.714003
9.50894
0.901574
8.71707
1.09588
8.09156
1.15084
7.91972
0.819155
7.05384
0.183744
5.92494
0.052131
4.84466
0.0264306
4.60766
0.0132327
4.5719
-0.00977816
4.58241
-0.174285
4.91382
-0.828371
5.99323
-1.13153
7.0964
-1.00725
7.89582
-0.814441
8.05034
-0.645578
8.63859
-0.585887
9.41767
-0.567807
10.2258
-0.362892
10.6759
-0.0506718
9.93755
7.82983
0.00759407
-0.232348
0.00818058
-0.252981
0.0074834
-0.263651
0.00547014
-0.267823
0.00273237
-0.276422
-0.000974316
-0.280723
-0.00446729
-0.290915
-0.00781936
-0.292333
-0.011709
-0.29835
-0.0145854
-0.303704
-0.0173394
-0.31502
-0.0210143
-0.327706
-0.0305722
-0.355032
-0.0719048
-0.465405
-0.236805
-0.940142
-0.552607
-1.85528
-0.569721
-1.94384
-0.560426
-1.90017
-0.547096
-1.81717
-0.522232
-1.73218
-0.492141
-1.64042
-0.458404
-1.57592
-0.418846
-1.53385
-0.373234
-1.50763
-0.321255
-1.4923
-0.263686
-1.48403
-0.198247
-1.48226
-0.127295
-1.48902
-0.0564234
-1.4834
-1.52598
0.0202432
-0.258443
0.0215832
-0.261657
0.0202178
-0.269065
0.0170983
-0.270007
0.0128199
-0.276026
0.00838492
-0.278971
0.00383422
-0.285509
-0.00093839
-0.288837
-0.00533939
-0.293039
-0.00893896
-0.298492
-0.0125715
-0.310359
-0.0210563
-0.331189
-0.0562369
-0.412187
-0.188184
-0.783914
-0.470515
-1.77558
-0.537365
-2.00599
-0.51824
-1.97778
-0.518718
-1.87245
-0.512026
-1.78599
-0.488343
-1.70037
-0.463078
-1.60009
-0.434743
-1.53017
-0.399348
-1.48363
-0.356403
-1.45609
-0.306368
-1.44003
-0.250041
-1.4307
-0.185896
-1.43088
-0.117411
-1.44152
-0.048445
-1.43934
-1.47192
0.0088732
-0.27417
0.00674617
-0.267077
0.00484834
-0.272908
9.55977e-05
-0.270546
-0.00409447
-0.275228
-0.00844807
-0.273076
-0.0129034
-0.279949
-0.0171516
-0.283303
-0.0216061
-0.289928
-0.0255829
-0.297018
-0.0323229
-0.315961
-0.060916
-0.38456
-0.168495
-0.693237
-0.556403
-1.77669
-0.605871
-2.03032
-0.582028
-2.05235
-0.56872
-1.95036
-0.556482
-1.8438
-0.533049
-1.76475
-0.502598
-1.66816
-0.481502
-1.56772
-0.453381
-1.49237
-0.415072
-1.43942
-0.36869
-1.40848
-0.31609
-1.39056
-0.258038
-1.38161
-0.191799
-1.38444
-0.120855
-1.39608
-0.0521877
-1.39634
-1.42083
-0.00147792
-0.279513
-0.00434327
-0.271463
-0.00682095
-0.275464
-0.0115158
-0.270178
-0.0162414
-0.270856
-0.0211705
-0.268006
-0.0255746
-0.274601
-0.0284801
-0.279921
-0.0338181
-0.292385
-0.0403289
-0.310982
-0.0626743
-0.380055
-0.158284
-0.661663
-0.571916
-1.79859
-0.676741
-2.0881
-0.648238
-2.11581
-0.629901
-2.0194
-0.600507
-1.91286
-0.572632
-1.81915
-0.533674
-1.73396
-0.500992
-1.64605
-0.478666
-1.53872
-0.453726
-1.46284
-0.419055
-1.40554
-0.374816
-1.37191
-0.322503
-1.3531
-0.263813
-1.34148
-0.19779
-1.34385
-0.127255
-1.35341
-0.0586543
-1.35355
-1.36795
-0.00152795
-0.284906
-0.0057655
-0.278284
-0.00950366
-0.274488
-0.014591
-0.264009
-0.0200547
-0.264235
-0.0254385
-0.263837
-0.0292538
-0.276223
-0.0336284
-0.293166
-0.0392851
-0.325437
-0.0579881
-0.406089
-0.139228
-0.695984
-0.514811
-1.87494
-0.671417
-2.16587
-0.662838
-2.19649
-0.659094
-2.08496
-0.630326
-1.96869
-0.596307
-1.87209
-0.554624
-1.78054
-0.511221
-1.68873
-0.480052
-1.61523
-0.463805
-1.50649
-0.441254
-1.42439
-0.409131
-1.36593
-0.36729
-1.3314
-0.317589
-1.31301
-0.262176
-1.29933
-0.197914
-1.30046
-0.129796
-1.30571
-0.0649355
-1.30027
-1.31436
-0.00232469
-0.288451
-0.00707466
-0.270717
-0.0113388
-0.267665
-0.0171787
-0.256659
-0.0231484
-0.261865
-0.028697
-0.277508
-0.0329238
-0.318431
-0.0375624
-0.383655
-0.0533033
-0.497533
-0.128806
-0.806533
-0.449079
-2.01189
-0.630275
-2.25966
-0.649221
-2.27985
-0.668042
-2.16703
-0.659946
-2.03371
-0.626706
-1.91752
-0.581518
-1.80813
-0.535512
-1.70951
-0.493022
-1.62667
-0.462222
-1.57002
-0.450524
-1.46655
-0.43041
-1.37121
-0.400494
-1.31455
-0.360431
-1.28078
-0.312452
-1.26277
-0.25746
-1.25066
-0.195697
-1.24837
-0.130439
-1.25143
-0.0627107
-1.24703
-1.25574
-0.00300954
-0.28608
-0.00887368
-0.260908
-0.0142338
-0.258484
-0.0209245
-0.255953
-0.0270291
-0.291111
-0.0325268
-0.374822
-0.0345436
-0.524381
-0.0480221
-0.727701
-0.121405
-1.37274
-0.375377
-2.1367
-0.555069
-2.34724
-0.617596
-2.3289
-0.656535
-2.25203
-0.674271
-2.10142
-0.656522
-1.96819
-0.611538
-1.81811
-0.566602
-1.70227
-0.523731
-1.61405
-0.48243
-1.54098
-0.450831
-1.50222
-0.444443
-1.41904
-0.424072
-1.31286
-0.395588
-1.25809
-0.356947
-1.22545
-0.310159
-1.20807
-0.255542
-1.19793
-0.194498
-1.19293
-0.130716
-1.19361
-0.0651081
-1.18929
-1.19647
-0.00528865
-0.275321
-0.0121638
-0.250479
-0.0187415
-0.258129
-0.0283453
-0.299787
-0.0351509
-0.450766
-0.0448202
-0.723354
-0.0637542
-1.49252
-0.11579
-1.81388
-0.258513
-2.09722
-0.444966
-2.35706
-0.557298
-2.33193
-0.624397
-2.27982
-0.671225
-2.1648
-0.674647
-2.01663
-0.636375
-1.83079
-0.5945
-1.67232
-0.555336
-1.57704
-0.516496
-1.50222
-0.476975
-1.44148
-0.443042
-1.41499
-0.440136
-1.35812
-0.421553
-1.25127
-0.394326
-1.19707
-0.356326
-1.16643
-0.310001
-1.15019
-0.255938
-1.14159
-0.194843
-1.13612
-0.130327
-1.13556
-0.0642817
-1.13112
-1.13543
-0.00760839
-0.265549
-0.0174823
-0.252347
-0.0297739
-0.308467
-0.0519965
-0.505806
-0.0904917
-1.04759
-0.129921
-1.68397
-0.123865
-1.93163
-0.169023
-2.09559
-0.324409
-2.24683
-0.462173
-2.28836
-0.557893
-2.23507
-0.639601
-2.17667
-0.671496
-2.05969
-0.652096
-1.84619
-0.61096
-1.64523
-0.579721
-1.52231
-0.545964
-1.44544
-0.511436
-1.38353
-0.472997
-1.33399
-0.437591
-1.31611
-0.434087
-1.28394
-0.420569
-1.18693
-0.393827
-1.13179
-0.356351
-1.10448
-0.310071
-1.09027
-0.256518
-1.08359
-0.195616
-1.07904
-0.131077
-1.07803
-0.065473
-1.07326
-1.07629
-0.0106274
-0.306546
-0.0323343
-0.329108
-0.0739666
-0.544288
-0.2095
-1.13426
-0.200921
-1.69447
-0.176114
-1.96707
-0.153814
-2.0939
-0.197611
-2.14468
-0.342974
-2.20925
-0.471187
-2.16468
-0.559802
-2.12015
-0.634395
-2.04146
-0.643275
-1.85748
-0.617809
-1.63373
-0.589372
-1.46443
-0.566527
-1.36355
-0.537126
-1.30061
-0.505729
-1.25026
-0.468388
-1.21359
-0.433235
-1.20721
-0.426207
-1.1979
-0.419564
-1.11901
-0.392145
-1.06344
-0.355098
-1.04093
-0.308973
-1.02983
-0.256213
-1.02501
-0.196215
-1.0228
-0.130831
-1.02348
-0.0653111
-1.01809
-1.02078
-0.0135889
-0.70112
-0.0845007
-0.764673
-0.308916
-1.19897
-0.315294
-1.76972
-0.246398
-2.02659
-0.186631
-2.10501
-0.163746
-2.16105
-0.211021
-2.12735
-0.365258
-2.0968
-0.457743
-2.00859
-0.541373
-1.91484
-0.597488
-1.80459
-0.598927
-1.62545
-0.585207
-1.42197
-0.569859
-1.27332
-0.553064
-1.18979
-0.527503
-1.14018
-0.498925
-1.10248
-0.46436
-1.08245
-0.430523
-1.0895
-0.4178
-1.09934
-0.416146
-1.04626
-0.389179
-0.993859
-0.352687
-0.977404
-0.306833
-0.970534
-0.254677
-0.968481
-0.195453
-0.969377
-0.130424
-0.972948
-0.0654534
-0.967653
-0.971264
-0.0017462
-3.21158
-0.243512
-3.21396
-0.418231
-2.13727
-0.319939
-2.22648
-0.227918
-2.20591
-0.165692
-2.16491
-0.160389
-2.13601
-0.226044
-2.04099
-0.340052
-1.94392
-0.418092
-1.78881
-0.502125
-1.68477
-0.54549
-1.56269
-0.549785
-1.38557
-0.549916
-1.19529
-0.550679
-1.07292
-0.540339
-1.00943
-0.51804
-0.972251
-0.4929
-0.948704
-0.462276
-0.947689
-0.43033
-0.967396
-0.410492
-0.993051
-0.410768
-0.967067
-0.385242
-0.924069
-0.349216
-0.915045
-0.303682
-0.913601
-0.252607
-0.915471
-0.193849
-0.919818
-0.129823
-0.926282
-0.0654639
-0.921822
-0.926566
0.0321515
-4.16742
-0.315342
-4.06372
-0.356624
-2.74669
-0.280257
-2.45504
-0.204996
-2.25109
-0.145659
-2.12493
-0.146374
-2.01601
-0.208286
-1.88466
-0.29934
-1.72026
-0.380424
-1.56767
-0.454709
-1.43947
-0.485296
-1.30041
-0.496154
-1.13466
-0.513991
-0.966556
-0.530516
-0.875125
-0.530346
-0.831271
-0.511135
-0.80836
-0.488442
-0.799276
-0.463116
-0.813897
-0.432477
-0.844473
-0.406037
-0.884741
-0.405743
-0.883467
-0.381537
-0.854703
-0.345798
-0.854096
-0.30052
-0.85908
-0.250259
-0.865379
-0.19204
-0.872554
-0.12912
-0.88127
-0.0651085
-0.878376
-0.883804
-0.00562307
-4.19247
-0.285164
-3.9092
-0.276554
-3.11758
-0.234611
-2.56499
-0.180289
-2.19048
-0.129262
-1.95814
-0.119448
-1.79759
-0.172907
-1.62958
-0.24333
-1.48308
-0.32513
-1.32578
-0.398713
-1.18572
-0.42079
-1.04018
-0.442721
-0.89733
-0.481022
-0.753978
-0.511676
-0.693476
-0.520285
-0.663203
-0.507876
-0.655091
-0.489571
-0.660591
-0.46702
-0.685589
-0.436789
-0.725889
-0.405002
-0.77817
-0.402397
-0.798334
-0.378402
-0.787118
-0.342902
-0.794777
-0.298087
-0.806507
-0.247951
-0.816996
-0.190227
-0.826566
-0.128423
-0.836941
-0.0643504
-0.836896
-0.842147
-0.0649695
-3.86442