/*--------------------------------*- C++ -*----------------------------------*\
| =========                 |                                                 |
| \\      /  F ield         | OpenFOAM: The Open Source CFD Toolbox           |
|  \\    /   O peration     | Version:  2112                                  |
|   \\  /    A nd           | Website:  www.openfoam.com                      |
|    \\/     M anipulation  |                                                 |
\*---------------------------------------------------------------------------*/
FoamFile
{
    version     2.0;
    format      ascii;
    arch        "LSB;label=32;scalar=64";
    class       volScalarField;
    location    "0.00363";
    object      p;
}
// * * * * * * * * * * * * * * * * * * * * * * * * * * * * * * * * * * * * * //

dimensions      [1 -1 -2 0 0 0 0];

internalField   nonuniform List<scalar> 
13875
(
951592
984275
973631
975767
973372
974397
974540
974490
974991
975043
975100
974947
974743
974877
974882
974665
974479
974430
973904
973944
973084
975598
972389
982428
944851
733813
659553
672294
677311
670301
668584
668638
670333
677707
679263
679413
678103
670725
669411
670460
677804
678635
677068
670242
668201
669248
676957
672291
657372
730511
736904
635542
664395
653467
648195
645918
645056
645497
646708
645979
645925
646925
645792
645487
645485
648572
645194
647796
646076
646209
647620
651845
661946
632141
733297
743550
636186
665275
653614
648471
646108
645195
645556
644935
643857
643801
644977
645863
645601
645552
645699
643624
645444
646162
646416
647902
651964
662695
632740
739107
757389
639193
667820
654298
649323
646673
645602
645799
645031
644020
643992
645089
646108
645919
645793
645772
643803
645527
646465
646983
648711
652550
664987
635372
750552
759092
647851
673579
656237
651151
647873
646453
646357
645376
644528
644557
645453
646652
646567
646325
646037
644326
645849
647156
648162
650467
654423
670580
643098
751935
765143
668369
685807
661142
654927
650322
648168
647551
646267
645646
645754
646401
647774
647772
647411
646699
645475
646850
648722
650662
654340
660105
682149
665829
756163
791419
718436
711799
674641
663171
655565
651721
650129
648423
647928
647900
648456
650004
650193
649641
648373
647850
649218
651977
655656
662287
673129
707273
715483
782402
909202
828120
766999
704966
680029
666108
658893
655500
653143
652558
652282
652806
654548
655077
654212
652301
652717
654449
658635
665571
678307
701633
760846
823715
910970
1.52611e+06
1.02999e+06
835525
742862
702160
681302
670672
665321
662601
661799
661329
661862
663789
664772
663633
661224
662296
664566
669919
680563
700631
740061
831438
1.02687e+06
1.52152e+06
2.91327e+06
1.39524e+06
965267
807349
739984
708169
692687
685164
681931
680626
680021
680358
682405
683954
682962
680577
681679
684605
691251
705768
735740
799142
948015
1.3547e+06
2.87262e+06
5.62872e+06
2.35294e+06
1.31989e+06
970684
825973
767640
741652
729921
725043
722924
722003
721843
724003
726053
725560
724272
725585
729972
740542
764635
819918
956400
1.2829e+06
2.28588e+06
5.60291e+06
5.42119e+06
4.84094e+06
2.44284e+06
1.5097e+06
1.07012e+06
931028
873607
848589
838053
833626
831756
830963
832984
835472
836044
837409
841249
851298
876251
933465
1.07106e+06
1.47928e+06
2.31793e+06
4.88974e+06
5.37465e+06
4.9016e+06
4.70364e+06
4.95017e+06
4.37532e+06
1.84879e+06
1.45631e+06
1.30829e+06
1.24157e+06
1.21609e+06
1.20548e+06
1.20146e+06
1.20026e+06
1.20223e+06
1.2049e+06
1.2086e+06
1.21501e+06
1.22824e+06
1.25842e+06
1.33807e+06
1.51729e+06
2.00275e+06
4.4442e+06
4.93071e+06
4.7665e+06
4.80946e+06
4.14621e+06
4.28922e+06
4.81445e+06
4.78041e+06
4.4901e+06
3.36195e+06
3.12561e+06
2.80823e+06
2.67478e+06
2.62156e+06
2.59902e+06
2.58958e+06
2.58913e+06
2.59447e+06
2.60756e+06
2.63405e+06
2.69182e+06
2.83062e+06
3.19396e+06
3.45286e+06
4.48045e+06
4.76897e+06
4.83103e+06
4.44335e+06
4.38341e+06
3.77112e+06
3.81937e+06
4.45065e+06
5.06165e+06
6.37955e+06
7.60105e+06
8.27493e+06
8.19341e+06
8.33718e+06
8.24034e+06
8.27768e+06
8.21332e+06
8.24828e+06
8.23314e+06
8.27542e+06
8.26517e+06
8.34744e+06
8.22851e+06
8.36052e+06
7.70483e+06
6.41681e+06
5.11586e+06
4.57202e+06
3.97883e+06
4.00657e+06
2.97384e+06
3.34964e+06
4.40755e+06
5.26853e+06
6.50197e+06
7.38339e+06
7.70179e+06
7.60277e+06
7.47862e+06
7.37128e+06
7.3119e+06
7.28123e+06
7.26836e+06
7.27439e+06
7.31756e+06
7.37427e+06
7.49241e+06
7.60583e+06
7.71058e+06
7.44684e+06
6.60728e+06
5.31186e+06
4.47851e+06
3.46023e+06
3.15461e+06
2.28152e+06
3.02654e+06
4.38566e+06
5.24641e+06
5.87884e+06
6.20595e+06
6.18042e+06
6.16188e+06
6.13167e+06
6.12964e+06
6.12722e+06
6.11974e+06
6.11636e+06
6.11721e+06
6.12215e+06
6.11903e+06
6.11864e+06
6.13683e+06
6.14507e+06
6.18441e+06
5.94746e+06
5.31802e+06
4.37263e+06
2.81512e+06
2.0785e+06
1.17773e+06
1.97056e+06
3.71261e+06
4.25404e+06
4.55431e+06
4.80148e+06
4.97472e+06
5.15887e+06
5.33017e+06
5.44856e+06
5.5116e+06
5.54206e+06
5.55249e+06
5.54061e+06
5.50866e+06
5.44135e+06
5.33081e+06
5.16045e+06
4.98625e+06
4.83103e+06
4.62448e+06
4.35747e+06
3.75127e+06
1.9742e+06
1.15231e+06
568209
1.25749e+06
2.76352e+06
3.18298e+06
3.41007e+06
3.75315e+06
4.1526e+06
4.47521e+06
4.71035e+06
4.85497e+06
4.94203e+06
4.9926e+06
5.01225e+06
4.99668e+06
4.94907e+06
4.8638e+06
4.72871e+06
4.4957e+06
4.16452e+06
3.76031e+06
3.42917e+06
3.2079e+06
2.76217e+06
1.26083e+06
560499
656911
1.13969e+06
1.77164e+06
2.23807e+06
2.58969e+06
3.04086e+06
3.52171e+06
3.87927e+06
4.12888e+06
4.28457e+06
4.38519e+06
4.44544e+06
4.46733e+06
4.44956e+06
4.39347e+06
4.29553e+06
4.14471e+06
3.89149e+06
3.51075e+06
3.01309e+06
2.56322e+06
2.21299e+06
1.73736e+06
1.08011e+06
641031
997703
1.04642e+06
1.21348e+06
1.69808e+06
2.04857e+06
2.56525e+06
3.00573e+06
3.33874e+06
3.58473e+06
3.7459e+06
3.85119e+06
3.91244e+06
3.93413e+06
3.91392e+06
3.85372e+06
3.74924e+06
3.58994e+06
3.34016e+06
2.99178e+06
2.53447e+06
2.00446e+06
1.66329e+06
1.16759e+06
1.0146e+06
1.00373e+06
1.36742e+06
1.05923e+06
1.06503e+06
1.37065e+06
1.69939e+06
2.21583e+06
2.58218e+06
2.87303e+06
3.10518e+06
3.26262e+06
3.36458e+06
3.42458e+06
3.44433e+06
3.42186e+06
3.36051e+06
3.25663e+06
3.09772e+06
2.86296e+06
2.56082e+06
2.20125e+06
1.64894e+06
1.33795e+06
1.04127e+06
1.03569e+06
1.37655e+06
1.41539e+06
1.08333e+06
1.07154e+06
1.2242e+06
1.49187e+06
1.90909e+06
2.21444e+06
2.48208e+06
2.6886e+06
2.82939e+06
2.929e+06
2.9861e+06
3.00582e+06
2.98238e+06
2.9229e+06
2.81723e+06
2.67242e+06
2.46309e+06
2.17734e+06
1.88038e+06
1.4628e+06
1.19298e+06
1.04761e+06
1.06219e+06
1.39598e+06
1.41494e+06
1.12565e+06
1.08933e+06
1.15492e+06
1.35169e+06
1.65542e+06
1.90956e+06
2.15059e+06
2.33302e+06
2.46042e+06
2.55158e+06
2.60659e+06
2.62219e+06
2.60275e+06
2.54698e+06
2.44722e+06
2.31595e+06
2.1296e+06
1.87307e+06
1.62173e+06
1.32516e+06
1.12907e+06
1.06662e+06
1.10882e+06
1.39867e+06
1.4205e+06
1.19366e+06
1.12719e+06
1.12506e+06
1.24708e+06
1.45552e+06
1.66701e+06
1.87436e+06
2.03018e+06
2.14393e+06
2.22752e+06
2.27096e+06
2.28895e+06
2.26773e+06
2.21919e+06
2.12964e+06
2.00831e+06
1.84832e+06
1.63194e+06
1.4228e+06
1.2284e+06
1.10308e+06
1.10642e+06
1.176e+06
1.40039e+06
1.43672e+06
1.31116e+06
1.17205e+06
1.12583e+06
1.17434e+06
1.30635e+06
1.47486e+06
1.64466e+06
1.77805e+06
1.87842e+06
1.94989e+06
1.98912e+06
2.00107e+06
1.98507e+06
1.93848e+06
1.86298e+06
1.75517e+06
1.61793e+06
1.44271e+06
1.27185e+06
1.14853e+06
1.10335e+06
1.1505e+06
1.3088e+06
1.41738e+06
1.48418e+06
1.47683e+06
1.20614e+06
1.12449e+06
1.12081e+06
1.18938e+06
1.31522e+06
1.44992e+06
1.55969e+06
1.64736e+06
1.71127e+06
1.7427e+06
1.75607e+06
1.73881e+06
1.70176e+06
1.63526e+06
1.54131e+06
1.42859e+06
1.29061e+06
1.16378e+06
1.10003e+06
1.10334e+06
1.1829e+06
1.46109e+06
1.46519e+06
1.58751e+06
1.54542e+06
1.23105e+06
1.11704e+06
1.08701e+06
1.10789e+06
1.19267e+06
1.29365e+06
1.38349e+06
1.45654e+06
1.50783e+06
1.5382e+06
1.54676e+06
1.53357e+06
1.49929e+06
1.44403e+06
1.36477e+06
1.27192e+06
1.16971e+06
1.08504e+06
1.06614e+06
1.09667e+06
1.20733e+06
1.51287e+06
1.57233e+06
1.80145e+06
1.59685e+06
1.24536e+06
1.10067e+06
1.05033e+06
1.04728e+06
1.09307e+06
1.16277e+06
1.23099e+06
1.29073e+06
1.33643e+06
1.35889e+06
1.36812e+06
1.35324e+06
1.3269e+06
1.27913e+06
1.21366e+06
1.14248e+06
1.07109e+06
1.02668e+06
1.03082e+06
1.08212e+06
1.23388e+06
1.58556e+06
1.74109e+06
1.85137e+06
1.64589e+06
1.27129e+06
1.08571e+06
1.01093e+06
992701
1.01192e+06
1.05737e+06
1.10736e+06
1.15425e+06
1.18861e+06
1.21006e+06
1.21571e+06
1.20612e+06
1.18083e+06
1.14365e+06
1.09359e+06
1.04258e+06
996820
977659
996115
1.07012e+06
1.25469e+06
1.63024e+06
1.86181e+06
1.84999e+06
1.67316e+06
1.31684e+06
1.08382e+06
978075
945954
943993
970468
1.0027e+06
1.03504e+06
1.0644e+06
1.07883e+06
1.08581e+06
1.07636e+06
1.05734e+06
1.02618e+06
989034
956108
928264
930351
961665
1.06607e+06
1.2873e+06
1.66032e+06
1.86093e+06
1.84016e+06
1.67715e+06
1.37509e+06
1.0859e+06
948437
899141
888099
897039
917583
939796
958689
971554
975195
969059
951384
930522
905865
885132
874004
884527
933668
1.06944e+06
1.34734e+06
1.66823e+06
1.85578e+06
1.8201e+06
1.67657e+06
1.4958e+06
1.09821e+06
927405
857373
835410
832532
842239
853820
868781
876111
880198
874099
863066
846911
832782
822053
824567
845251
913289
1.07746e+06
1.43891e+06
1.66499e+06
1.83737e+06
1.78082e+06
1.67312e+06
1.57143e+06
1.12664e+06
920548
823375
788109
779138
780381
785724
792911
798732
800026
796602
787321
779386
772822
769933
777811
812438
909077
1.10188e+06
1.59061e+06
1.65877e+06
1.79985e+06
1.75223e+06
1.65439e+06
1.5692e+06
1.15665e+06
922542
796313
746214
729002
724850
724509
727487
729821
730982
726938
722993
718906
717513
720607
736994
786417
913582
1.14917e+06
1.59382e+06
1.64294e+06
1.73113e+06
1.71329e+06
1.61541e+06
1.56428e+06
1.21907e+06
933094
780335
712027
685770
676780
674120
672925
673573
672742
670940
669111
669740
671861
679305
704015
772312
921395
1.21656e+06
1.58323e+06
1.60402e+06
1.69189e+06
1.67009e+06
1.56224e+06
1.55069e+06
1.34392e+06
958760
780599
686900
648521
633425
626646
623853
621885
621660
620438
621303
623345
628424
642081
678744
773157
943678
1.35278e+06
1.56124e+06
1.54873e+06
1.65214e+06
1.64001e+06
1.51536e+06
1.51365e+06
1.34757e+06
989813
783884
671644
618983
597906
589092
582767
580017
578722
579293
580417
585364
594059
613872
666531
781640
990633
1.3599e+06
1.516e+06
1.50185e+06
1.61535e+06
1.60391e+06
1.4737e+06
1.43992e+06
1.34415e+06
1.05562e+06
796947
672048
596928
566473
552019
545505
541031
540399
540790
544034
549736
562672
592790
666814
794593
1.06536e+06
1.3536e+06
1.42147e+06
1.46312e+06
1.58911e+06
1.55924e+06
1.43377e+06
1.36082e+06
1.33193e+06
1.18756e+06
824857
676026
585446
543048
525523
514420
510196
508006
509466
512920
522589
540927
583417
670851
823928
1.21727e+06
1.33635e+06
1.34131e+06
1.43123e+06
1.5529e+06
1.52551e+06
1.40213e+06
1.29904e+06
1.29853e+06
1.18685e+06
864861
682140
585623
527366
498829
486517
480427
479119
479525
485672
496802
524640
584106
686137
887206
1.21691e+06
1.29864e+06
1.28562e+06
1.40066e+06
1.50779e+06
1.47635e+06
1.37379e+06
1.25125e+06
1.23197e+06
1.17923e+06
949126
700686
589060
522235
484909
464181
457359
454346
456680
462838
482161
519457
587228
711824
1.00052e+06
1.20065e+06
1.227e+06
1.23958e+06
1.36997e+06
1.47302e+06
1.4242e+06
1.34337e+06
1.21666e+06
1.1685e+06
1.15804e+06
1.04376e+06
737637
598954
522869
469884
445757
434853
432360
434298
444909
468967
520262
597155
763601
1.05079e+06
1.16453e+06
1.16326e+06
1.20952e+06
1.34207e+06
1.42922e+06
1.38461e+06
1.30817e+06
1.18895e+06
1.11712e+06
1.11016e+06
1.03963e+06
801685
616525
524887
469665
435981
420517
414776
419802
434796
469059
525627
622378
873270
1.04524e+06
1.09333e+06
1.11088e+06
1.1867e+06
1.3054e+06
1.37701e+06
1.34271e+06
1.27488e+06
1.16986e+06
1.07312e+06
1.04444e+06
1.0266e+06
934601
654894
533721
471100
435256
410425
403028
409756
432811
470177
537169
667342
928753
1.02343e+06
1.02899e+06
1.07e+06
1.1693e+06
1.27092e+06
1.3427e+06
1.29575e+06
1.23258e+06
1.14873e+06
1.04607e+06
996321
996049
933934
733294
554915
475827
435875
409902
397852
409609
433344
474177
562485
758446
925348
977339
980888
1.04331e+06
1.15017e+06
1.23423e+06
1.29855e+06
1.2543e+06
1.19739e+06
1.12876e+06
1.02623e+06
956517
939250
922741
843168
595555
485873
437561
410308
398320
410217
436526
486263
618769
841703
913552
923568
945515
1.0263e+06
1.12938e+06
1.19631e+06
1.24944e+06
1.17119e+06
1.14501e+06
1.09918e+06
1.01146e+06
932352
894824
897156
841336
681424
508977
444198
412444
400399
412282
444457
510244
730538
840077
885937
883363
924891
1.0113e+06
1.09918e+06
1.14245e+06
1.16227e+06
1.04259e+06
1.07455e+06
1.05826e+06
989877
912951
856326
849132
830850
765040
558863
461920
418623
405983
418445
463472
560270
763355
828183
842787
849519
908712
990116
1.0552e+06
1.07243e+06
1.03694e+06
75306.5
75620.7
75867.8
75798.5
75898.7
76667.5
76979.9
77429.4
77493
77506.8
77558.3
77791.3
78185.5
78659.8
79038.5
79394.9
80115.2
81749.4
84006.9
86457.8
89112.7
91951.6
95227.8
97785.8
101625
106480
114510
138493
208065
227117
75543.6
76169.9
76394.1
76398.4
76659.9
77347
77690.2
78246.1
78511.8
78631.6
78427.3
78545.6
78817
79068.8
79258.4
79412.8
79770
80572.3
82537.1
85064.1
87659.2
90696.6
93746.1
97531.3
101866
109441
128357
195116
219876
223782
76031.9
76917.4
76998.6
76982.6
77090.3
77733.9
78101.2
78712.4
79017.1
79132
79184.8
79200.4
79272.2
79339.1
79310
79316.2
79224.7
79690.2
81068.7
83837.5
86717.7
89999.6
93104.7
97494.1
103152
116547
166202
216200
223270
222100
76948.5
77609.7
77675.9
77374.4
77471.6
78071.1
78458.4
79060.8
79385.3
79594.4
79730.1
79672.9
79564
79470.6
79330.1
79103.5
78931.1
79194.9
80343.4
82659.9
85968
89265.7
92920.9
97638.8
106791
134092
205711
220794
223825
220390
77738.1
78001.3
78003.4
77717.6
77844.5
78410.1
78781.6
79279.8
79605.4
79906.1
80076.6
80094.2
79930.1
79668.2
79340.9
79039.5
78830.7
78982.3
80044.2
82169
85463.8
88671.6
92877.8
98949.9
115657
184635
215129
221206
222616
213573
78149
78128.1
78181.3
78007.2
78147.1
78641.4
78958.9
79398
79731.6
80138.3
80388
80499.8
80388.1
80026.5
79585.9
79137.9
78841.6
78943.9
79972.3
82020.6
85191.7
88623.9
93289.4
103709
145328
206008
216192
218884
216240
207784
78298.8
78161.5
78273
78270.1
78446.3
78860.7
79157.7
79554.1
79901.3
80389.7
80771.9
80882.8
80803
80379.4
79944.5
79516.5
79326.8
79226.5
80023.7
81994.7
84913
88769.1
95546.5
116520
190689
210438
214694
213390
209065
204292
78307.1
78157.6
78343.9
78581.7
78814.9
79214.9
79506.1
79859.8
80170.2
80745.7
81172.6
81321
81279.2
80949.1
80369.6
80064.5
79953.4
79955.3
80593.3
82118.1
84780.4
89734.4
101783
158586
202994
210319
210217
207121
202884
201881
78298.4
78204.5
78523.7
78998.1
79287.3
79711.8
79951.1
80199.4
80546
81073.9
81515.6
81706.5
81724.5
81510.7
81007.4
80749.2
80638.3
80592.7
80948.9
82161.9
85078.2
92611.6
120107
189726
204724
207948
204613
200830
198950
199630
78292.5
78432
78858.6
79505.4
79842.3
80199.8
80337
80499.6
80804.1
81239.8
81711.2
82046.3
82164.3
82212.4
81824.3
81253.7
80976.6
80887.7
81049.9
82102.3
86141.7
99763.6
165460
197598
203890
203748
198540
196241
196219
197025
78341.3
78931.8
79402.5
80094.2
80414.1
80589.5
80668.2
80775.5
80997.2
81421.4
82023.5
82506.9
82676.5
82738.1
82215
81482.4
81091
80960
81029.1
82307
89023.5
122985
185394
198189
200594
198259
193974
192922
193768
194390
78869.2
79701.9
80166.7
80746
80921.7
81004.7
81025.3
81114.2
81257.6
81756.5
82311.2
82748.7
82929.5
82967.3
82345
81540.7
81096.5
80797
80545.2
83221
96678
164486
190746
196633
196766
192799
190385
189917
191100
191485
79829.8
80660.7
81022.2
81466.6
81574
81506.6
81426.1
81488.1
81557.7
81925.7
82428
82829.5
83002.8
83011.2
82351
81389
80660.3
79876.8
80595
85947.9
121862
179036
190927
193162
192413
188746
187210
187121
187993
188263
81062.6
81710.4
81936.6
82288.8
82386.9
82112.2
81904.8
81780
81739.8
81967.2
82441.3
82797.7
82914.4
82713.1
81998.5
81083.7
80033.6
79627
81330.4
93598.1
159276
183432
189200
189721
187761
185362
184261
184178
184658
184795
82369
82778.9
82874.6
83160.5
83242.4
82840.5
82368.7
82001.2
81844.5
81831.9
82075.7
82343.9
82445.6
82281.6
81619
80717.7
79625.7
79741.6
84015.3
118133
172443
183634
186101
186188
183593
181897
181152
181123
181426
181428
83672.1
83875
83815.2
83849.5
83834.4
83512.4
82796.1
82172.2
81870.5
81800.8
81822.8
81925.3
81986.7
81788
81275.7
80287.4
79328.5
80614.4
91275.6
153279
177251
182300
182848
182318
179749
178503
178012
178048
178305
178233
84688.6
84761.8
84587.5
84405.1
84158.7
83817.6
82982.2
82240
81882.4
81586.7
81448.1
81420.1
81445
81209.2
80568.4
79177.6
79419.9
83390.8
114792
167396
177944
179740
179735
177897
176246
175231
174856
175072
175319
175218
85759
85625.8
85293.4
84720.9
84318
83948.7
83050.3
82221.8
81479.2
81118.3
80873.5
80759.1
80681.2
79997.9
78575.2
78366.7
80013.4
90806.6
151608
175805
178208
177539
176344
173833
172641
171959
171739
172178
172376
172252
85978.8
85961.1
85112.7
84527.9
84023.1
83785
82630.6
81456.3
80784.3
80259.9
79930.5
79539.2
79154.8
78365.3
77896.8
78244.2
82674
119686
175202
182367
178724
175579
172291
170354
169202
168703
168582
169125
169342
169293
87405.9
86528
85824.1
84950.9
84401.6
83357.5
82136.1
81098
80452.8
79648.3
79136.4
78814.2
78565.8
78090.5
77942.3
80237.4
96580.6
169585
186356
184865
178185
172532
168765
166781
165823
165383
165255
165981
166262
166313
86442.8
85997.6
84745
84455.6
83352.7
82462.3
81847.8
81075.4
80481.7
79584.3
79316
79226.6
79129.7
79333.4
81320.5
91591.4
152730
187975
190913
185182
176479
168942
165393
163313
162318
161929
161856
162903
163307
163448
88028
86171.7
85624.5
84135.4
83328.2
82410.8
81991.1
81074.7
80332.4
80246.2
80435.4
81332.9
83389.9
87315.8
97768.9
144604
184871
192173
192048
184610
172063
165964
161709
159796
158919
158596
158546
159830
160354
160611
84526.3
84857.7
83189.5
83659.7
83097.5
82390
81116.9
80922.7
81075.9
82255.5
86519.1
93422.7
107361
122726
145806
177585
189744
192195
191695
180290
168152
161390
158013
156328
155595
155389
155540
156855
157390
157726
90381.1
84299.1
85078
84169
83109.9
81034.8
80828
81448.8
85404.8
94927.1
116074
134604
143194
148161
160700
179882
185554
186785
186995
173236
163189
157012
154018
152643
152079
151917
152862
153996
154382
154834
67713.4
80192.5
82195.8
82930.3
81469.5
80669.7
80950.2
86008.1
106723
137026
148022
150339
149356
150514
159218
168629
174630
176627
176800
164837
156427
152139
150007
149026
148648
148567
150143
151252
151575
152048
227010
207811
138156
114438
106481
101651
97817.8
95341.9
91953.2
89123.1
86494
84021
81769.4
80133.4
79407.9
79088
78643.1
78170.2
77806.8
77589.9
77528.4
77541.7
77556.5
77091.2
76769.2
75969.9
75861.7
75921.1
75653.5
75307.2
223883
220130
195120
128301
109447
101902
97586.7
93721.8
90703.3
87673.6
85092.6
82492.9
80594.6
79795.4
79446.3
79339.1
79165.3
78883.7
78622.5
78534
78807.6
78796.6
78501.4
77936.7
77576.3
76864.8
76556.7
76528.2
76278.4
75605.1
222289
223634
216445
166168
116570
103209
97556.8
93143.5
90040.5
86749
83845.4
81095.4
79728.2
79293.9
79433.9
79445
79503.6
79441.9
79390.3
79434.8
79500.6
79375.6
79018.6
78403.3
78021.7
77383.3
77254.5
77233.3
77085.9
76155.1
220672
224207
221121
205933
134175
106874
97715.1
92980.5
89333.6
86023.9
82684
80400.3
79267.7
79056.8
79270.3
79535.8
79705.3
79860.8
80011.6
80136.1
79976.9
79764.5
79398.7
78786.4
78404.7
77804.6
77711
78003.7
77916.4
77168
213914
223025
221546
215426
184874
115764
99026.8
92939.2
88743.6
85533.5
82242.7
80125.4
79081.6
78979.5
79227.8
79599
80014
80356
80592.8
80595.9
80359.3
80002
79642.4
79145.7
78780.7
78211.3
78089.5
78378.8
78401.8
78057.5
208209
216663
219230
216500
206257
145571
103797
93360.1
88699.6
85268.8
82112.7
80064.4
79056.9
79044.7
79396.1
79904.8
80398.8
80886
81091.3
80946.7
80628.3
80134.7
79772.9
79340.5
79037.9
78545.6
78406.1
78569.5
78540.1
78526.2
204673
209456
213709
214980
210676
190918
116664
95628.5
88845.4
84983
82095.2
80152.6
79422.8
79579
79810.7
80287.6
80857.8
81382.5
81517.7
81359.4
80886.7
80321
79934.8
79537.3
79265.2
78873.4
78684.9
78669
78553.3
78680
202184
203186
207401
210454
210543
203164
158859
101883
89814.3
84867.7
82272.7
80804.8
80213.5
80265.3
80438.8
80824.4
81517
81931.9
81947.4
81751.5
81219.6
80603.8
80268
79903.7
79641.6
79251.2
79010
78741.6
78546.4
78679.5
199824
199120
201029
204798
208098
204867
189890
120296
92714.9
85189
82309
81219.3
80987.9
81013.7
81142.7
81598.1
82217.7
82367.1
82270
81975.1
81486.3
80981.3
80658.6
80404.2
80169.1
79743.1
79440.8
78922.4
78563.5
78638.4
197072
196261
196308
198644
203836
203994
197712
165708
99905.8
86283
82281.2
81365
81347.8
81494.5
81883.5
82543.2
82907.6
82813.5
82579.6
82128.4
81630.5
81251
81017.6
80884
80724.6
80328
79965.5
79257.7
78780.9
78621.5
194309
193705
192871
193946
198285
200653
198285
185586
123244
89218
82594.3
81333.8
81444.7
81706.3
82260.8
83048.5
83457.8
83317.4
83050.7
82479.3
81837.1
81470.5
81307.4
81245.7
81163
80941.7
80568
79799
79297.2
78681.6
191338
190963
189785
190266
192733
196798
196707
190952
164900
97005.4
83601.3
81062.1
81330.8
81753.2
82390.5
83253.6
83704.7
83560.6
83285.9
82756
82164.5
81748.1
81660.4
81551.9
81524.8
81440
81200.3
80559.9
80104.9
79260.6
188045
187786
186941
187042
188635
192435
193305
191149
179550
122579
86461.8
81262.1
80650.7
81527.4
82400.4
83286.9
83758
83625.5
83360.7
82861
82324.1
82019.9
81986
81932.3
81946
81956.9
81871.1
81434.9
81092
80295.4
184521
184406
183975
184071
185243
187798
189985
189541
184056
160222
94369.7
82139.8
80524.4
81072.2
82162.9
82932.5
83479.9
83455.7
83298.4
82867.2
82361.6
82134.2
82149.2
82287.9
82501.7
82654
82592.7
82308
82136
81599.4
181131
181165
180916
180963
181804
183711
186623
186603
184306
173394
119302
84988.6
80705.7
80673.8
81613.6
82311.9
82808.1
82842.1
82747.4
82480.6
82149.4
82146.3
82218.4
82520.2
83069.2
83416.9
83376.2
83197.4
83182.2
82890.6
177954
178071
177847
177856
178458
179949
182871
183615
183146
178393
154833
92477.6
81616.2
80146.2
80932.1
81658.1
82137.2
82270.7
82237
82131.1
81990
82064.7
82287.2
82815.4
83595.1
83983.3
84022
84102.7
84230.6
84081.5
174979
175119
174880
174806
175254
176444
178518
180804
180930
179483
169294
116470
84380.2
80028.2
79651.1
80690.5
81378.6
81589.4
81583.3
81575.4
81620.2
81790.6
82276.5
83033.9
83934.5
84369.8
84566.9
84831.3
85073.3
85033.3
172066
172231
172051
171794
172075
172903
174404
177534
179173
180109
178017
154185
91835.9
80541.8
78732.4
78805.5
79930.9
80711.1
80929
81092.1
81360.7
81689
82295.6
83129.3
84078.2
84559.3
84928.6
85509.7
85863.7
86048
169131
169264
169107
168722
168894
169533
170959
173414
177334
180497
184225
177132
121313
83200.7
78600.8
78236.6
78675.2
79194.7
79557.5
80110.6
80711.2
81434.2
82034.3
82812.2
83985.5
84362
84858.9
85435.4
86201
86217.7
166181
166230
166018
165512
165672
166229
167462
169685
174160
180099
186608
187892
171259
97533.4
80671.2
78389.1
78547.8
78907.1
79087
79268.6
79655.4
80607.7
81508.5
82549.1
83611.6
84865.6
85294.1
86187.5
86769.1
87584.3
163362
163278
162998
162271
162371
162825
163969
166348
170147
178308
186890
192174
189337
155287
92929.4
82406.9
80326.8
79812.7
79650.9
79461
79404.8
79875.1
80958.9
82252.2
83452.2
84177
84953.2
85061.8
86205.2
86577
160604
160417
160007
158954
159039
159436
160447
162596
166926
173787
186289
193192
193237
186165
148532
101771
89963.4
85620.6
82979.5
81494.4
80472.2
79911.7
80353
81849.9
83115.2
84543.3
85027.5
86144.8
86585.7
88262.3
157779
157508
157036
155865
155862
156108
156941
158864
162639
169400
181817
192699
193113
190561
178448
148127
128558
113976
99013
89993.5
84255.1
82049.6
80990.8
81077.1
82192.4
83166.7
84060.5
83694.5
85338.7
84755.9
154892
154499
154145
153093
152489
152667
153265
154693
157733
163759
175255
187281
186992
185489
179844
160098
148779
145378
139551
123804
100625
87827.6
82830.1
81478.5
81503.5
83173.1
84299.2
85590.9
84953
90846.1
152120
151680
151395
150388
148978
149084
149513
150625
153000
157564
165756
176368
176153
174028
167866
157364
150123
149952
151279
149976
141665
114351
88708
82230.3
81476.1
81857.1
82849.1
82282.9
80571.6
68108.6
70637
70637
70637
70637
70637
70637
70637
70637
70637
70637
70637
70637
70637
70637
70637
70637
70637
70637
70637
70637.4
70684
72908.7
149203
627632
1.16343e+06
1.33214e+06
1.38955e+06
1.43687e+06
1.52798e+06
1.65317e+06
1.75025e+06
1.83264e+06
1.86994e+06
1.88069e+06
1.88159e+06
1.86993e+06
1.82105e+06
1.74561e+06
1.71599e+06
1.68986e+06
1.65315e+06
1.60396e+06
1.57867e+06
1.56205e+06
1.55339e+06
1.54578e+06
1.53951e+06
1.52659e+06
1.50301e+06
1.46417e+06
1.41021e+06
1.34574e+06
1.2738e+06
1.19034e+06
1.10154e+06
1.01291e+06
926630
844574
770004
705398
649206
598805
554088
514063
478002
445659
416862
391368
368920
348939
330947
314658
299910
286558
274235
262839
252340
242666
233694
225300
217615
210737
204624
199172
194253
189777
185668
181900
178439
175220
172150
169133
166124
163133
160222
157461
154897
152533
150337
148264
146290
144419
142683
141106
139696
138445
137342
136379
135561
134928
134456
134185
134116
134119
134156
134318
134762
135719
137182
138565
140279
142256
144512
146916
149452
70637
70637
70636.9
70636.9
70636.9
70636.9
70636.9
70636.9
70636.9
70636.9
70636.9
70636.9
70636.9
70636.9
70636.9
70636.9
70636.9
70636.9
70636.9
70637.6
70675.8
72481.3
133160
561752
1.08688e+06
1.27005e+06
1.33813e+06
1.37647e+06
1.39433e+06
1.41785e+06
1.57018e+06
1.71088e+06
1.77325e+06
1.79718e+06
1.80426e+06
1.8052e+06
1.79715e+06
1.77092e+06
1.72154e+06
1.67114e+06
1.62699e+06
1.58761e+06
1.54702e+06
1.50969e+06
1.48017e+06
1.4599e+06
1.44634e+06
1.43018e+06
1.40521e+06
1.36994e+06
1.3195e+06
1.25099e+06
1.16691e+06
1.08415e+06
1.00398e+06
929235
857395
787960
724302
667319
616215
570951
530587
494720
462386
432796
406002
382144
361045
342098
324952
309376
295258
282429
270644
259591
249503
240335
231794
223626
215983
208945
202598
196945
191900
187368
183270
179557
176173
173043
170052
167097
164137
161197
158340
155634
153123
150811
148667
146648
144728
142902
141203
139652
138264
137038
135962
135033
134251
133634
133212
133045
133043
133057
133135
133379
133954
135140
136604
138038
139791
141812
144063
146449
148994
70637
70637
70637
70637
70636.9
70636.9
70636.9
70636.9
70636.9
70636.9
70636.9
70636.9
70636.9
70636.9
70636.9
70636.9
70636.9
70636.9
70636.9
70637.2
70646.6
71164.2
85711.1
328117
888688
1.27284e+06
1.43547e+06
1.51289e+06
1.55147e+06
1.64963e+06
1.69306e+06
1.71842e+06
1.7749e+06
1.79938e+06
1.81265e+06
1.8172e+06
1.8177e+06
1.81389e+06
1.79198e+06
1.74891e+06
1.71508e+06
1.67592e+06
1.63334e+06
1.59217e+06
1.55778e+06
1.52604e+06
1.49324e+06
1.45776e+06
1.4299e+06
1.40324e+06
1.35337e+06
1.29131e+06
1.2154e+06
1.12624e+06
1.02852e+06
940273
849220
770927
701318
643336
595257
554063
518060
484309
453531
425801
400759
378026
357637
339276
322739
307895
294404
282068
270647
259990
250139
240939
232283
224095
216457
209500
203263
197599
192420
187664
183316
179355
175728
172374
169196
166107
163069
160095
157240
154558
152079
149804
147704
145734
143861
142075
140398
138852
137452
136204
135103
134146
133328
132685
132298
132138
132144
132172
132258
132532
133216
134615
136044
137567
139387
141440
143723
146147
148714
70637
70637
70637
70637
70636.9
70636.9
70636.9
70636.9
70636.9
70636.9
70636.9
70636.9
70636.9
70636.9
70636.9
70636.9
70636.9
70636.9
70636.9
70637
70639.4
70800.2
76610.2
232924
792085
1.44151e+06
1.67882e+06
1.74269e+06
1.75866e+06
1.75886e+06
1.75618e+06
1.76228e+06
1.76334e+06
1.75937e+06
1.74784e+06
1.74412e+06
1.73837e+06
1.73698e+06
1.73628e+06
1.72618e+06
1.70065e+06
1.66722e+06
1.6284e+06
1.59019e+06
1.55668e+06
1.52696e+06
1.48756e+06
1.44867e+06
1.40628e+06
1.35632e+06
1.28367e+06
1.20884e+06
1.11608e+06
1.02545e+06
944020
863658
794836
730409
670743
616111
568542
528802
492647
461754
434213
409784
387744
367023
347975
330860
316111
303097
291017
279789
269276
259347
250009
241255
232785
224674
217072
210066
203694
197884
192528
187539
182794
178361
174336
170605
167070
163670
160417
157325
154427
151748
149296
147067
145034
143153
141388
139707
138111
136612
135225
133959
132816
131805
130938
130272
129898
129725
129726
129752
129888
130337
131351
132944
134343
136081
138035
140132
142428
144936
147638
70637
70637
70637
70637
70636.9
70636.9
70636.9
70636.9
70636.9
70636.9
70636.9
70636.9
70636.9
70636.9
70636.9
70636.9
70636.9
70636.9
70636.9
70637
70637.4
70652.1
71202.2
84956.5
310203
851133
1.50122e+06
1.77459e+06
1.86514e+06
1.88155e+06
1.872e+06
1.85891e+06
1.8423e+06
1.77281e+06
1.74043e+06
1.7145e+06
1.6857e+06
1.66303e+06
1.64271e+06
1.62171e+06
1.59726e+06
1.56427e+06
1.53472e+06
1.51662e+06
1.49937e+06
1.48251e+06
1.47246e+06
1.4593e+06
1.44999e+06
1.41776e+06
1.35913e+06
1.27893e+06
1.17225e+06
1.06501e+06
967831
869220
786177
720148
665529
608950
558928
521357
488469
457553
429282
404063
381455
361807
345374
331078
317364
304179
291991
280722
270143
260188
250857
242149
233915
225817
218241
211178
204625
198553
193003
187869
183124
178449
173835
169727
165819
162050
158721
155615
152635
149785
147104
144629
142369
140312
138417
136637
134944
133335
131834
130478
129292
128300
127508
126937
126651
126585
126592
126653
126907
127538
128836
130214
131854
133805
135930
138158
140565
143137
145842
70637
70637
70637
70637
70636.9
70636.9
70636.9
70636.9
70636.9
70636.9
70636.9
70636.9
70636.9
70636.9
70636.9
70636.9
70636.9
70636.9
70636.9
70637.1
70640.2
70740.4
73031.6
112542
449084
802917
942636
1.04732e+06
1.20942e+06
1.63726e+06
1.8397e+06
1.89434e+06
1.90242e+06
1.89986e+06
1.86177e+06
1.76062e+06
1.69678e+06
1.65248e+06
1.60475e+06
1.56262e+06
1.53311e+06
1.5132e+06
1.50053e+06
1.4947e+06
1.4927e+06
1.49211e+06
1.49438e+06
1.49555e+06
1.49264e+06
1.46406e+06
1.38378e+06
1.2503e+06
1.12436e+06
995743
889931
811513
733083
664926
621102
578262
537429
506169
478254
451392
427880
405706
383640
363791
347266
332819
320651
307824
294980
283280
272545
262567
253230
244452
236383
228655
220890
213637
206531
200171
194276
188995
183979
178860
174185
169985
166006
162296
158438
154622
150964