/*--------------------------------*- C++ -*----------------------------------*\
| =========                 |                                                 |
| \\      /  F ield         | OpenFOAM: The Open Source CFD Toolbox           |
|  \\    /   O peration     | Version:  2112                                  |
|   \\  /    A nd           | Website:  www.openfoam.com                      |
|    \\/     M anipulation  |                                                 |
\*---------------------------------------------------------------------------*/
FoamFile
{
    version     2.0;
    format      ascii;
    arch        "LSB;label=32;scalar=64";
    class       volScalarField;
    location    "0.00987";
    object      nut;
}
// * * * * * * * * * * * * * * * * * * * * * * * * * * * * * * * * * * * * * //

dimensions      [0 2 -1 0 0 0 0];

internalField   nonuniform List<scalar> 
13875
(
0.0511675
0.0366255
0.0343658
0.0343277
0.0342988
0.034335
0.0342938
0.0342764
0.0343117
0.0343085
0.0342838
0.0342894
0.0343206
0.0343418
0.0343305
0.0342933
0.0342676
0.0342894
0.0343023
0.0343266
0.0343038
0.0343344
0.034382
0.0365712
0.0514282
0.0532618
0.0341199
0.0322224
0.0321055
0.0320619
0.0320828
0.0320326
0.0320119
0.0320526
0.0320646
0.0320322
0.032043
0.0320526
0.0320726
0.0320604
0.032047
0.0320036
0.0320339
0.032046
0.0320759
0.0320636
0.0321024
0.0322285
0.034056
0.0536377
0.0564568
0.0335617
0.031803
0.0315924
0.0315672
0.031575
0.0314653
0.0314274
0.0314634
0.0314752
0.031438
0.0314605
0.0315298
0.031556
0.0315347
0.0314644
0.0314078
0.0314445
0.031478
0.0315677
0.0315644
0.0315802
0.0317949
0.0334946
0.056595
0.0590705
0.0332328
0.0314897
0.0312768
0.0312595
0.0312612
0.0311393
0.0311009
0.0311292
0.0311249
0.0310909
0.0311142
0.0312135
0.03124
0.0312183
0.0311165
0.0310725
0.0311019
0.0311463
0.0312539
0.0312552
0.0312625
0.0314852
0.0331684
0.0591442
0.0611258
0.0330041
0.0312466
0.0310036
0.030982
0.0309775
0.030851
0.0308159
0.0308423
0.0308335
0.0308027
0.0308249
0.0309256
0.0309547
0.0309299
0.0308269
0.030786
0.0308143
0.0308592
0.0309687
0.0309766
0.0309899
0.0312305
0.0329185
0.0612585
0.0628184
0.0328483
0.0310897
0.0307726
0.0307488
0.0307271
0.0305909
0.0305567
0.030579
0.0305675
0.0305405
0.0305611
0.0306639
0.0306949
0.0306677
0.0305623
0.0305256
0.030553
0.0305997
0.0307199
0.0307436
0.0307613
0.0310591
0.0328223
0.0629756
0.0648269
0.0330733
0.0311044
0.0306339
0.0305652
0.0305201
0.030364
0.030327
0.0303419
0.0303271
0.0303046
0.0303232
0.0304286
0.0304588
0.0304285
0.0303217
0.0302925
0.0303203
0.030376
0.0305121
0.03056
0.0306333
0.0311134
0.0330705
0.0648704
0.0670935
0.0339367
0.0314252
0.0306519
0.0304815
0.0303684
0.0301818
0.0301274
0.0301322
0.0301157
0.0300982
0.0301109
0.0302203
0.0302519
0.0302188
0.0301076
0.0300887
0.0301206
0.0301896
0.0303572
0.0304672
0.0306299
0.0313925
0.033896
0.067363
0.073646
0.0362967
0.032041
0.0308469
0.0304724
0.0302784
0.0300482
0.029969
0.0299588
0.0299386
0.02993
0.0299369
0.0300499
0.030083
0.0300493
0.0299348
0.0299226
0.0299581
0.0300439
0.0302596
0.0304502
0.0308024
0.0319355
0.0359996
0.0741931
0.0829009
0.0384712
0.0327361
0.0311901
0.0305814
0.0302465
0.0299798
0.0298837
0.029858
0.0298359
0.0298332
0.0298367
0.0299475
0.0299819
0.0299502
0.0298469
0.0298324
0.0298727
0.0299652
0.0302199
0.0305502
0.031081
0.0326235
0.0381054
0.0835467
0.0907238
0.0441443
0.0346488
0.0319981
0.0308223
0.0303643
0.0300473
0.0299049
0.029861
0.0298376
0.0298345
0.0298352
0.0299386
0.0299745
0.0299513
0.0298726
0.0298559
0.0299032
0.0300351
0.0303037
0.0307942
0.0318815
0.0343628
0.0432645
0.0893482
0.0950636
0.0545375
0.0403808
0.0334597
0.0318807
0.030841
0.0303282
0.0301247
0.030046
0.0300136
0.0300035
0.0300052
0.0300924
0.0301324
0.030122
0.0300723
0.0300639
0.0301365
0.030321
0.0308357
0.0317991
0.0332289
0.0398486
0.0533648
0.0942585
0.0866103
0.0688911
0.0514961
0.0417644
0.0343733
0.0319321
0.0312693
0.0308097
0.0306304
0.0305502
0.0305131
0.0305086
0.0305746
0.0306185
0.0306294
0.0306236
0.0306757
0.0308695
0.0313305
0.0320046
0.0347657
0.0415811
0.050951
0.0687649
0.0866025
0.0796105
0.0660512
0.0581296
0.0654773
0.0416792
0.0371392
0.0336208
0.0324222
0.032029
0.0319739
0.0319398
0.031935
0.0319943
0.0320402
0.0320664
0.0320908
0.0321386
0.0325325
0.0340771
0.0382576
0.0432066
0.0657093
0.0578319
0.0661742
0.0816122
0.0753374
0.0643575
0.0565569
0.0605182
0.0561618
0.0537734
0.0442503
0.0388101
0.0367132
0.0358765
0.0355024
0.0353823
0.0354024
0.035461
0.0355717
0.0358693
0.0366695
0.0389009
0.0451627
0.0552193
0.0557449
0.0612451
0.0565974
0.0641544
0.0746653
0.0671777
0.0618851
0.0542682
0.0571734
0.0560342
0.0571768
0.0544654
0.0530688
0.0507841
0.0483014
0.0474648
0.0471264
0.0470379
0.047121
0.0472834
0.0477873
0.0504344
0.0542614
0.0554432
0.0577197
0.0556156
0.0580066
0.0543093
0.061498
0.066481
0.0624148
0.0582112
0.0524191
0.0549504
0.0567834
0.0612139
0.0680919
0.0729206
0.0701254
0.0707156
0.073048
0.0745469
0.0753247
0.0750059
0.0734875
0.0726912
0.0700873
0.0728714
0.068681
0.0611957
0.0562986
0.0552982
0.0519634
0.0575777
0.0624385
0.0570117
0.0546858
0.0530367
0.0568322
0.0599474
0.0630285
0.0708236
0.0792004
0.0744959
0.070343
0.0692515
0.0693998
0.0699311
0.0696521
0.0697903
0.0727045
0.0739795
0.0767445
0.0708389
0.064174
0.0609417
0.057653
0.0528208
0.0542668
0.0567909
0.0513869
0.0541562
0.0558279
0.061749
0.066937
0.0648633
0.0673171
0.0752107
0.0744592
0.0705093
0.0687328
0.0683301
0.0684366
0.0689142
0.0698823
0.0717907
0.0728885
0.0731203
0.0677266
0.0667188
0.0696555
0.0630048
0.0562439
0.0544066
0.0521556
0.0493779
0.0573317
0.060315
0.0656602
0.0686825
0.0645955
0.0638983
0.0695257
0.0719542
0.070512
0.0687831
0.0672371
0.0664915
0.068079
0.0700775
0.0709973
0.0699339
0.0678168
0.0645441
0.0665275
0.0707326
0.066453
0.0608729
0.0576308
0.048777
0.0773976
0.0886762
0.0774111
0.0652538
0.0650071
0.0616195
0.0606856
0.065527
0.069456
0.0695457
0.0677101
0.0652349
0.0640561
0.0663749
0.0690711
0.0695411
0.0672369
0.0640948
0.0614547
0.0634516
0.0667515
0.0669069
0.0798491
0.0917063
0.0822462
0.12831
0.160982
0.0900984
0.0620226
0.0608857
0.0586046
0.0580316
0.0625425
0.0670093
0.0678793
0.0659612
0.0628494
0.0613911
0.0641152
0.0672883
0.0676051
0.0647573
0.0613758
0.058719
0.0602011
0.0623066
0.0637827
0.0930671
0.165243
0.134467
0.152812
0.14594
0.0842723
0.0591819
0.0575424
0.0560292
0.0556585
0.0601001
0.0646858
0.0658324
0.0637466
0.0603177
0.0586768
0.0615128
0.0650214
0.0655012
0.0624575
0.0590916
0.0562362
0.0572812
0.0586634
0.0606803
0.0838275
0.144071
0.153362
0.161459
0.146369
0.076797
0.0570142
0.0547444
0.0536768
0.0536132
0.0578692
0.0624346
0.0636254
0.0613149
0.0576937
0.0560964
0.058975
0.0626917
0.0633889
0.060209
0.0568439
0.0541656
0.0548132
0.0558552
0.058547
0.0776499
0.150328
0.160642
0.167355
0.147301
0.0727048
0.0554343
0.0526671
0.0516852
0.0519514
0.0559045
0.0602378
0.0613265
0.0589279
0.055269
0.0537049
0.0565541
0.0603837
0.0611979
0.0581211
0.0548372
0.0523742
0.052715
0.0538203
0.0570008
0.0743677
0.154068
0.167484
0.174846
0.150558
0.0698928
0.053944
0.0510442
0.0499988
0.0505947
0.0541885
0.058147
0.059082
0.0566901
0.0530441
0.0515095
0.0542544
0.0580643
0.0589947
0.0561978
0.0530747
0.0507927
0.0508229
0.0521437
0.0553236
0.0714427
0.156819
0.177117
0.184341
0.146919
0.0666766
0.0525271
0.0497868
0.0486279
0.0494592
0.0526822
0.056119
0.0567575
0.054429
0.0509771
0.0495242
0.0522196
0.0559477
0.0569162
0.0544473
0.0515332
0.049424
0.0493091
0.0509149
0.0539935
0.0689538
0.155241
0.184332
0.190131
0.14649
0.0648107
0.0514417
0.0488136
0.0475668
0.0484671
0.051323
0.0542727
0.0546809
0.0524346
0.0491299
0.047725
0.0502984
0.0538822
0.054928
0.0528492
0.0501995
0.0482723
0.0481094
0.0498157
0.0527817
0.0671662
0.155771
0.191898
0.195243
0.14861
0.0637083
0.0505551
0.0480175
0.0468134
0.0476067
0.0500873
0.0525631
0.0527365
0.0506172
0.0474835
0.0460922
0.0485265
0.0518951
0.0529824
0.0513429
0.0490025
0.047268
0.0471315
0.0488213
0.0517219
0.0652947
0.151069
0.199735
0.202217
0.145657
0.062749
0.0498425
0.0472333
0.0462172
0.0469475
0.0489804
0.0509215
0.0508432
0.0488251
0.0459186
0.04462
0.0469945
0.0502317
0.0513147
0.0499822
0.0479377
0.0464447
0.0463636
0.0479098
0.0509483
0.0645802
0.151273
0.20369
0.204398
0.141968
0.0622188
0.0494248
0.0465452
0.0456539
0.0463285
0.0479639
0.0494579
0.04918
0.0472925
0.0445578
0.0432837
0.045545
0.0485839
0.0496737
0.0487171
0.0470138
0.0457767
0.0456776
0.047028
0.050327
0.0636296
0.146274
0.209091
0.206915
0.141728
0.0621465
0.0493088
0.0459265
0.0450884
0.0457423
0.047058
0.0481638
0.0477332
0.045929
0.0433168
0.0420846
0.0442105
0.0471131
0.0482397
0.047573
0.0461868
0.045149
0.0450034
0.0462476
0.0500044
0.0630399
0.143241
0.211636
0.211137
0.137238
0.0618322
0.0493752
0.0454545
0.0446211
0.0451481
0.0462006
0.0469011
0.0463139
0.0446113
0.0421759
0.0409988
0.0430677
0.0458309
0.0469394
0.0465158
0.0454304
0.0445221
0.0444218
0.0456617
0.0499447
0.0631274
0.143247
0.21322
0.212255
0.134794
0.0616877
0.0496766
0.045154
0.0441866
0.0445116
0.0454066
0.0457984
0.0451092
0.0434824
0.0411484
0.0400188
0.0419592
0.0446149
0.0457477
0.0455375
0.0447399
0.0439095
0.0438986
0.0452415
0.0500807
0.0632811
0.139761
0.215884
0.213255
0.1344
0.0614015
0.0500498
0.0451992
0.0437949
0.0439258
0.0446261
0.044789
0.0439949
0.0424526
0.040232
0.0391301
0.0409735
0.0434903
0.0446315
0.0446237
0.0440421
0.0433456
0.0435069
0.045142
0.0504268
0.0629485
0.137364
0.216769
0.215343
0.132699
0.0610261
0.0504347
0.0454539
0.0434879
0.0433791
0.0438585
0.0438369
0.0429758
0.0414734
0.0393518
0.0383217
0.0400876
0.0425438
0.0436806
0.0437878
0.0433495
0.0428283
0.0431516
0.0453516
0.050917
0.062719
0.137713
0.217672
0.215684
0.132931
0.0608901
0.0512287
0.0459199
0.04331
0.0429072
0.0431352
0.0429466
0.0420533
0.0406124
0.0385856
0.0375845
0.0392623
0.0415996
0.0427411
0.0429668
0.0427038
0.0423584
0.0429232
0.045743
0.0516554
0.0622541
0.136192
0.219125
0.215638
0.135468
0.06078
0.0520111
0.0465448
0.043349
0.0424567
0.0424602
0.0421311
0.0412339
0.0398415
0.0378637
0.0369109
0.0384948
0.0407716
0.0419045
0.04219
0.0421023
0.0419193
0.0429305
0.046385
0.0524346
0.0617997
0.137266
0.219159
0.21599
0.135435
0.0602488
0.0522314
0.0474045
0.0436053
0.0421262
0.0418542
0.0413485
0.0404226
0.0390774
0.0371991
0.0362997
0.0378304
0.0400211
0.0411285
0.0414845
0.0415624
0.0415847
0.0431252
0.0472745
0.0527738
0.0613762
0.140508
0.218807
0.215129
0.137371
0.0597459
0.0522352
0.0485002
0.0440374
0.0419539
0.0413339
0.0406633
0.039723
0.0384209
0.0365917
0.0357334
0.0371726
0.0393148
0.0404074
0.0408248
0.0411068
0.0414418
0.0435469
0.0482326
0.05267
0.0608921
0.141932
0.218658
0.214647
0.139847
0.0595359
0.052136
0.0499183
0.0447011
0.0419827
0.0409557
0.0400627
0.0390718
0.0377996
0.0360369
0.0352144
0.036578
0.0386348
0.039735
0.0402526
0.0407684
0.0415176
0.0441755
0.0498751
0.0525792
0.0605463
0.144137
0.217461
0.214804
0.141595
0.059222
0.0517175
0.0506139
0.0455588
0.0421413
0.0407813
0.0395656
0.0384804
0.0372143
0.0354989
0.0347299
0.0360398
0.038069
0.0391638
0.039794
0.0406021
0.0417034
0.045142
0.0510219
0.0524064
0.0610532
0.146646
0.216747
0.214059
0.143874
0.0591971
0.051182
0.0506154
0.0469072
0.0425232
0.0407668
0.0392207
0.0379696
0.0366895
0.0350201
0.0342831
0.0355278
0.0374943
0.0386254
0.0394383
0.0406114
0.0420899
0.0463785
0.0510702
0.0518508
0.0608846
0.148507
0.216621
0.213528
0.146263
0.0602354
0.0506696
0.0502385
0.0486483
0.043245
0.0408375
0.0390605
0.0375864
0.0362391
0.0345713
0.0338667
0.0350527
0.0369882
0.038192
0.03925
0.0407381
0.0428773
0.0483742
0.0507454
0.0512784
0.0613094
0.150736
0.215936
0.213315
0.148359
0.0602445
0.0501249
0.0496338
0.0495562
0.0445406
0.0410955
0.0389972
0.0373333
0.035847
0.0341735
0.0334953
0.034651
0.036601
0.0379073
0.0391961
0.0410445
0.0443905
0.0495998
0.0501781
0.0509115
0.0626146
0.152994
0.215429
0.212418
0.150314
0.0614512
0.0498306
0.048957
0.049244
0.0467111
0.0417883
0.0390762
0.0372539
0.0356105
0.0338766
0.0331851
0.0343229
0.0363268
0.0377885
0.0392434
0.0417195
0.0465526
0.0493687
0.0494909
0.0504705
0.063196
0.154908
0.215024
0.211386
0.152344
0.0630797
0.0497646
0.0483694
0.0487367
0.0479726
0.0434429
0.0393185
0.0372134
0.035512
0.0337052
0.0329223
0.0341251
0.0361923
0.0377522
0.0394504
0.0433301
0.0480258
0.0488732
0.048857
0.05024
0.0640397
0.156686
0.213971
0.209387
0.153598
0.0638283
0.0496649
0.0478774
0.0480868
0.0477019
0.0457209
0.0401122
0.0372611
0.0354734
0.0336378
0.0327903
0.0340523
0.0361579
0.0378211
0.0402533
0.0457677
0.047892
0.0481998
0.0483402
0.0502926
0.0656333
0.158025
0.211663
0.205959
0.153756
0.064815
0.0497477
0.0474775
0.0473629
0.0472656
0.0472503
0.0418859
0.037564
0.0355204
0.0336322
0.0327813
0.0340366
0.0361773
0.0380874
0.0419445
0.0475345
0.0474707
0.0474379
0.0478857
0.0503013
0.0661753
0.158213
0.208337
0.197071
0.150671
0.0656121
0.0498475
0.047181
0.0467598
0.0467015
0.0470681
0.0444906
0.0386796
0.0357351
0.0336763
0.0327998
0.0340671
0.0363361
0.0390877
0.0445964
0.0474954
0.0469145
0.0468073
0.0475154
0.0502937
0.0664645
0.154975
0.19944
0.391028
1.59022
2.13531
2.11784
1.90324
1.68226
1.49725
1.33944
1.19352
1.04992
0.90819
0.773798
0.65644
0.563775
0.494514
0.446279
0.411038
0.384637
0.36336
0.345051
0.328368
0.311869
0.294729
0.27655
0.256766
0.234648
0.207494
0.173916
0.132635
0.102993
0.376373
1.6742
2.19967
2.14803
1.92278
1.70381
1.52301
1.36834
1.22644
1.08605
0.947266
0.813737
0.693596
0.594128
0.517394
0.460961
0.419644
0.38886
0.364114
0.343598
0.325608
0.308244
0.290751
0.272377
0.252721
0.230218
0.203582
0.16985
0.129759
0.101716
0.403368
1.83827
2.26953
2.18554
1.95387
1.73722
1.56068
1.41006
1.27075
1.13301
0.995259
0.860386
0.735918
0.629864
0.544612
0.478875
0.430016
0.392894
0.364242
0.341887
0.322337
0.304282
0.286357
0.268273
0.248888
0.225991
0.199347
0.165896
0.12712
0.100592
0.424666
1.92347
2.34119
2.24476
2.00734
1.78979
1.61542
1.46733
1.33042
1.19466
1.05709
0.921795
0.791571
0.677307
0.580734
0.503534
0.445152
0.4009
0.367725
0.342242
0.321039
0.301815
0.283528
0.265183
0.245521
0.222788
0.195719
0.162529
0.124911
0.0997113
0.432623
1.99629
2.4233
2.3207
2.07699
1.85712
1.68283
1.53702
1.40216
1.26843
1.13273
0.996314
0.860614
0.737436
0.627719
0.537049
0.46718
0.414296
0.37501
0.344914
0.321172
0.300163
0.281623
0.262845
0.242622
0.219703
0.192493
0.159549
0.122987
0.0989656
0.440083
2.07591
2.51333
2.40749
2.1558
1.93335
1.75913
1.61448
1.48245
1.35158
1.21749
1.07984
0.941316
0.808829
0.68658
0.582643
0.499472
0.435196
0.387005
0.351057
0.323346
0.300295
0.280536
0.261359
0.240122
0.216749
0.189488
0.156906
0.121334
0.0983381
0.44937
2.15996
2.60972
2.50042
2.244
2.01889
1.8442
1.70098
1.5714
1.44398
1.31175
1.17367
1.03308
0.89225
0.759485
0.640646
0.542508
0.46447
0.405101
0.36113
0.327981
0.302059
0.280538
0.259919
0.237839
0.214058
0.186644
0.154397
0.119962
0.0977848
0.459764
2.24812
2.71279
2.60207
2.34423
2.11509
1.93885
1.79637
1.66945
1.54552
1.41574
1.27824
1.1352
0.988409
0.845455
0.71244
0.597575
0.503709
0.43079
0.376656
0.336202
0.306144
0.281932
0.259079
0.236096
0.211686
0.184094
0.152059
0.118893
0.0973441
0.469928
2.33639
2.82125
2.71466
2.45718
2.22288
2.04391
1.90151
1.77766
1.65706
1.52955
1.39304
1.24807
1.09656
0.944675
0.798387
0.666408
0.555139
0.466456
0.39937
0.349557
0.313087
0.284403
0.259424
0.235069
0.209839
0.18196
0.150163
0.117799
0.0970271
0.478235
2.4214
2.93473
2.83776
2.5814
2.34246
2.15936
2.01645
1.89509
1.77756
1.65247
1.51741
1.37123
1.21571
1.05628
0.898227
0.750243
0.620849
0.514303
0.431046
0.368632
0.323149
0.289131
0.261081
0.234996
0.208772
0.180456
0.148715
0.116983
0.0968697
0.485988
2.50393
3.05271
2.96931
2.71557
2.47276
2.28443
2.14019
2.02064
1.90598
1.7833
1.64952
1.50293
1.34484
1.17927
1.0114
0.849427
0.701955
0.575772
0.473499
0.395012
0.338041
0.296798
0.26455
0.236195
0.208697
0.179679
0.147762
0.11639
0.0969888
0.494059
2.58807
3.17453
3.10693
2.85755
2.61089
2.41723
2.27094
2.15298
2.04042
1.92029
1.78788
1.64175
1.48231
1.31227
1.13691
0.963095
0.798671
0.651663
0.527874
0.430598
0.359159
0.308298
0.270336
0.238922
0.209694
0.179588
0.147329
0.116095
0.097102
0.502343
2.67285
3.29685
3.24789
3.00388
2.75348
2.55592
2.40893
2.29102
2.17943
2.0618
1.9313
1.78623
1.62668
1.45431
1.27356
1.08938
0.909544
0.742079
0.595737
0.477281
0.388161
0.324802
0.279056
0.24347
0.211717
0.180128
0.147287
0.115978
0.0972486
0.509025
2.75705
3.41694
3.38988
3.15252
2.9001
2.70033
2.55248
2.43322
2.32132
2.20644
2.07877
1.93569
1.77715
1.60393
1.41905
1.22666
1.03341
0.847497
0.679002
0.537319
0.427334
0.347992
0.29182
0.250171
0.21491
0.181243
0.147526
0.115958
0.0975366
0.514757
2.83628
3.53368
3.52966
3.30156
3.04992
2.85008
2.6996
2.57757
2.46492
2.35336
2.22964
2.08971
1.93264
1.75933
1.57147
1.3728
1.16887
0.967501
0.778518
0.612684
0.478799
0.379745
0.309604
0.259686
0.219849
0.183269
0.148105
0.116051
0.0979359
0.519153
2.9085
3.64574
3.66492
3.44886
3.20198
3.00388
2.84883
2.7226
2.61161
2.50437
2.38527
2.2485
2.0929
1.91953
1.72972
1.52632
1.31408
1.10022
0.893522
0.704434
0.544692
0.421901
0.334153
0.273006
0.226649
0.186406
0.149197
0.116335
0.0984233
0.524758
2.97103
3.74894
3.79311
3.59103
3.35424
3.15877
2.99849
2.86994
2.76345
2.66034
2.54538
2.41139
2.2573
2.08412
1.89298
1.68586
1.4671
1.24313
1.0209
0.810933
0.625588
0.476007
0.366683
0.290922
0.236006
0.190792
0.150961
0.116872
0.0990067
0.528365
3.02501
3.8394
3.90998
3.72506
3.50415
3.31326
3.14997
3.02262
2.92106
2.82171
2.70988
2.57879
2.42631
2.25352
2.06172
1.8514
1.62735
1.39471
1.1592
0.930418
0.720742
0.543205
0.40877
0.314529
0.248396
0.196864
0.153431
0.117566
0.0996074
0.531845
3.06364
3.90934
4.00927
3.84723
3.6472
3.46463
3.30382
3.18053
3.08384
2.98849
2.87928
2.75116
2.60058
2.42878
2.23653
2.02361
1.79483
1.55441
1.3075
1.0622
0.829666
0.624397
0.462005
0.345012
0.264233
0.204576
0.1565
0.118463
0.100268
0.532898
3.08929
3.95481
4.08262
3.95079
3.77846
3.61209
3.45968
3.34306
3.25131
3.15998
3.05417
2.9288
2.78088
2.61049
2.41813
2.20311
1.96985
1.72204
1.46505
1.20512
0.951825
0.719978
0.527968
0.383856
0.284333
0.214311
0.16042
0.119588
0.10103
0.534936
3.09307
3.96408
4.11947
4.02845
3.89408
3.75394
3.61645
3.50891
3.42286
3.33617
3.2347
3.1127
2.9676
2.79884
2.6062
2.38951
2.15151
1.89669
1.63029
1.35681
1.08522
0.829436
0.607912
0.433157
0.310317
0.226779
0.165532
0.120597
0.101386
0.535245
3.07646
3.92729
4.10588
4.07012
3.98841
3.88643
3.77152
3.67633
3.59777
3.51732
3.42137
3.30356
3.1614
2.99416
2.80079
2.58149
2.33897
2.07714
1.80131
1.51525
1.22771
0.95153
0.701891
0.494297
0.343634
0.242873
0.171976
0.122026
0.101766
0.537681
3.00958
3.81041
4.02032
4.06435
4.05464
4.00455
3.92107
3.84316
3.77502
3.70278
3.61383
3.50196
3.36297
3.19683
3.00202
2.7792
2.53096
2.26135
1.97565
1.67789
1.3763
1.08301
0.808006
0.567907
0.38567
0.263392
0.180072
0.124022
0.102189
0.533888
2.82371
3.52874
3.81962
3.99295
4.0825
4.10066
4.05976
4.00643
3.95321
3.89195
3.81205
3.70806
3.57286
3.4072
3.21003
2.98277
2.72723
2.44854
2.15209
1.84282
1.52941
1.22053
0.922677
0.652617
0.436786
0.288815
0.190169
0.126564
0.102589
0.520694
2.22177
2.86716
3.40669
3.80769
4.05374
4.16301
4.17968
4.16145
4.12985
4.08359
4.01542
3.92127
3.7907
3.62525
3.42437
3.19183
2.92822
2.64011
2.33316
2.0138
1.68902
1.36342
1.04406
0.74655
0.497158
0.319846
0.202808
0.129588
0.102969
0.102647
0.132024
0.173431
0.20778
0.235069
0.257879
0.277987
0.296116
0.312945
0.329972
0.346767
0.365392
0.38729
0.41311
0.446858
0.49393
0.56061
0.652227
0.77028
0.903593
1.04455
1.18889
1.33576
1.49532
1.68462
1.91026
2.12884
2.14744
1.59823
0.392141
0.101365
0.129384
0.169565
0.203621
0.230695
0.253841
0.273814
0.292135
0.309591
0.32675
0.344423
0.365583
0.391122
0.422158
0.462157
0.516612
0.590773
0.687198
0.806993
0.939258
1.07734
1.21815
1.36133
1.51794
1.7033
1.92704
2.15692
2.2109
1.68286
0.377656
0.100241
0.126933
0.165856
0.199412
0.226747
0.249708
0.269681
0.288025
0.305544
0.32307
0.342222
0.365109
0.393572
0.430522
0.478093
0.541908
0.625273
0.730285
0.852084
0.984948
1.12206
1.25983
1.40007
1.55329
1.73403
1.95526
2.19218
2.27983
1.84561
0.404755
0.0993829
0.124871
0.162683
0.195994
0.223462
0.246518
0.266631
0.285114
0.303122
0.321844
0.342882
0.368285
0.40071
0.443971
0.500663
0.575889
0.6706
0.784399
0.911915
1.04501
1.1821
1.31797
1.45537
1.60692
1.78507
2.00655
2.24885
2.35042
1.93119
0.426564
0.0986684
0.123161
0.160001
0.193043
0.220495
0.243798
0.264223
0.283155
0.301979
0.32232
0.345979
0.375356
0.413672
0.465108
0.533074
0.620459
0.727853
0.851036
0.984804
1.12026
1.25478
1.38911
1.52464
1.67351
1.85212
2.07524
2.32271
2.43198
2.00484
0.434531
0.0980433
0.121683
0.157553
0.190294
0.217955
0.241463
0.262466
0.282106
0.302124
0.324652
0.352158
0.387114
0.433547
0.496107
0.577181
0.678383
0.797374
0.929342
1.06745
1.20445
1.33747
1.46869
1.60143
1.7492
1.92704
2.15291
2.40737
2.52156
2.08577
0.441944
0.0975119
0.12044
0.155333
0.187773
0.215683
0.239405
0.261249
0.282006
0.303787
0.329343
0.361804
0.404715
0.461822
0.537906
0.633899
0.749969
0.880426
1.01998
1.16073
1.29761
1.42961
1.55774
1.68731
1.83347
2.01096
2.23885
2.49907
2.61713
2.17117
0.452095
0.0970888
0.119377
0.153389
0.185557
0.213454
0.237909
0.260558
0.283253
0.307488
0.337339
0.376698
0.429532
0.500041
0.591878
0.704452
0.835579
0.977211
1.12302
1.2658
1.40238
1.53194
1.65658
1.78299
1.92771
2.10542
2.33635
2.59902
2.71973
2.25977
0.462276
0.0967805
0.118498
0.151907
0.183773
0.211873
0.23732
0.260942
0.285796
0.313901
0.349865
0.398652
0.464055
0.550253
0.659554
0.789671
0.934808
1.08653
1.23741
1.38161
1.51762
1.6445
1.76555
1.88898
2.03245
2.21184
2.44662
2.70904
2.82707
2.34935
0.473148
0.0966125
0.117986
0.150635
0.182556
0.211004
0.237249
0.262642
0.290406
0.323897
0.368167
0.429268
0.51054
0.614743
0.742388
0.889444
1.04735
1.20724
1.36191
1.50737
1.64247
1.76676
1.88437
2.00514
2.14826
2.331
2.56941
2.8303
2.94007
2.43615
0.482232
0.0965797
0.117409
0.149605
0.181934
0.210951
0.23838
0.265994
0.297777
0.33819
0.393476
0.469897
0.570319
0.694733
0.840811
1.00276
1.1711
1.33735
1.49504
1.64125
1.77498
1.89672
2.01093
2.13002
2.2744
2.46151
2.70278
2.96061
3.05747
2.52069
0.489764
0.0966771
0.117011
0.14905
0.182073
0.211818
0.240836
0.271498
0.308509
0.358004
0.427311
0.522172
0.64419
0.790158
0.954009
1.12842
1.30501
1.476
1.63556
1.78143
1.91334
2.03248
2.14404
2.26121
2.40786
2.59981
2.84437
3.09764
3.1788
2.60536
0.497658
0.0968983
0.116769
0.148861
0.182288
0.213626
0.244874
0.27946
0.323501
0.384809
0.471383
0.587526
0.732342
0.899577
1.07978
1.26489
1.44749
1.6216
1.78171
1.92641
2.05593
2.17231
2.28219
2.39881
2.54666
2.74312
2.99106
3.23901
3.30227
2.69056
0.506277
0.0973223
0.116695
0.148987
0.183086
0.216413
0.250744
0.290507
0.344104
0.420438
0.527437
0.667041
0.834584
1.02106
1.21553
1.40918
1.59608
1.77145
1.93103
2.07401
2.20086
2.31405
2.42355
2.54167
2.68993
2.88975
3.1405
3.38188
3.42404
2.77546
0.513606
0.0976324
0.116939
0.149607
0.184756
0.220517
0.258857
0.30585
0.372148
0.467147
0.597289
0.761184
0.950025
1.15275
1.35849
1.55902
1.74899
1.92425
2.08279
2.22333
2.34714
2.45747
2.56698
2.68796
2.83761
3.03882
3.29039
3.52341
3.5423
2.85714
0.520098
0.0981571
0.117329
0.150656
0.187553
0.22629
0.270104
0.327236
0.409087
0.526636
0.682146
0.869678
1.07726
1.293
1.50732
1.71309
1.90506
2.08001
2.23769
2.3754
2.4957
2.60298
2.71172
2.83573
2.98874
3.18934
3.43858
3.66092
3.6556
2.93077
0.524788
0.0986737
0.117654
0.152073
0.191361
0.234146
0.285196
0.355124
0.456988
0.599836
0.78117
0.990045
1.21347
1.4398
1.66102
1.87036
2.0639
2.23878
2.39547
2.5311
2.64808
2.75242
2.85827
2.98449
3.14158
3.34008
3.58163
3.79203
3.76085
2.99436
0.530259
0.0991375
0.117871
0.153759
0.196169
0.244186
0.304771
0.391313
0.516495
0.686527
0.892419
1.12005
1.35706
1.59245
1.81912
2.03166
2.22666
2.40141
2.5569
2.691
2.80557
2.90706
3.00928
3.1348
3.29404
3.48864
3.71659
3.91207
3.85467
3.04949
0.534358
0.0995295
0.118188
0.155981
0.202186
0.257011
0.33012
0.43706
0.588741
0.786466
1.01517
1.25956
1.5079
1.75087
1.98243
2.19818
2.39425
2.56926
2.72359
2.85543
2.96815
3.06675
3.16536
3.28749
3.44466
3.63114
3.83978
4.01511
3.92845
3.08968
0.537891
0.0999749
0.118976
0.159236
0.210058
0.273623
0.3626
0.494067
0.674547
0.898811
1.14844
1.40799
1.66626
1.91601
2.15209
2.37101
2.56805
2.74322
2.89615
3.02579
3.13603
3.23128
3.32577
3.44214
3.59186
3.76283
3.94484
4.09154
3.977
3.11612
0.538964
0.100562
0.120265
0.163654
0.220473
0.295266
0.403956
0.563699
0.773822
1.0223
1.29061
1.5636
1.83122
2.08789
2.3292
2.55072
2.74913
2.92395
3.07538
3.2025
3.30929
3.40041
3.48981
3.59793
3.73349
3.87933
4.02488
4.13198
3.99005
3.12216
0.541178
0.101183
0.121976
0.169223
0.233968
0.323039
0.456035
0.646897
0.885402
1.15498
1.43921
1.72452
2.0021
2.26671
2.51372
2.73844
2.93831
3.11246
3.26226
3.38666
3.48841
3.57357
3.65604
3.75256
3.86628
3.97526
4.06988
4.12293
3.95641
3.10702
0.541681
0.10181
0.124039
0.176157
0.250921
0.357868
0.519496
0.742374
1.0073
1.29432
1.59279
1.88958
2.17762
2.45138
2.70535
2.93424
3.13612
3.30974
3.45747
3.57827
3.67276
3.74979
3.82233
3.90232
3.98535
4.04369
4.06764
4.03982
3.84066
3.04032
0.544186
0.102368
0.126298
0.18448
0.271617
0.400681
0.594205
0.847954
1.13677
1.44022
1.75156
2.06006
2.35882
2.64231
2.90423
3.13797
3.34274
3.51619
3.66076
3.77722
3.862
3.92801
3.98589
4.04185
4.08299
4.07493
4.0014
3.84201
3.55957
2.85336
0.540645
0.102875
0.12874
0.194434
0.296795
0.452127
0.679211
0.961641
1.2729
1.59398
1.91792
2.2384
2.54814
2.84138
3.11109
3.35024
3.5587
3.73254
3.87275
3.98173
4.05457
4.10571
4.14231
4.16366
4.14818
4.05177
3.82736
3.43451
2.90174
2.24647
0.527497
0.5193
0.531763
0.544639
0.559121
0.573985
0.589161
0.60445
0.619652
0.634718
0.649507
0.663957
0.678013
0.691639
0.704816
0.717542
0.729871
0.74194
0.753907
0.765693
0.777153
0.788171
0.798414
0.808143
0.818003
0.827792
0.837027
0.845562
0.853639
0.861339
0.868673
0.875624
0.882187
0.888359
0.894142
0.89954
0.90455
0.909165
0.913375
0.917181
0.920578
0.923475
0.926021
0.928818
0.931179
0.93313
0.934434
0.935016
0.934759
0.933496
0.931476
0.928732
0.925054
0.920359
0.914613
0.908052
0.900631
0.892249
0.882837
0.872386
0.860994
0.848655
0.835333
0.821
0.805676
0.789406
0.772211
0.754067
0.73524
0.716191
0.696714
0.676915
0.656862
0.636637
0.616329
0.596008
0.575765
0.555649
0.535714
0.516036
0.496614
0.477419
0.458527
0.440076
0.422238
0.405165
0.388746
0.372798
0.357328
0.34242
0.328104
0.314342
0.301054
0.288194
0.275667
0.263428
0.251417
0.239568
0.227845
0.21626
0.204805
0.193513
0.182487
0.171834
0.16164
0.152112
0.143346
0.135527
0.128672
0.12284
0.118045
0.114227
0.111334
0.109191
0.107653
0.106562
0.105903
0.105453
0.105153
0.104941
0.104852
0.104639
0.104314
0.103931
0.10356
0.103213
5.05996
5.10888
5.19852
5.31571
5.44179
5.57069
5.70082
5.82996
5.95723
6.08199
6.20386
6.32285
6.43889
6.55168
6.66068
6.76518
6.86397
6.95759
7.04568
7.13022
7.21171
7.2904
7.3668
7.43959
7.50877
7.57508
7.63912
7.70058
7.75936
7.81549
7.86898
7.91987
7.9682
8.01397
8.0571
8.09745
8.13477
8.16882
8.19926
8.22574
8.24777
8.26479
8.27613
8.28163
8.28191
8.27699
8.26675
8.25121
8.23102
8.20223
8.16685
8.12471
8.0754
8.01835
7.95414
7.88328
7.80484
7.71809
7.6226
7.51915
7.40745
7.28713
7.15803
7.0203
6.87433
6.71994
6.55602
6.37765
6.17727
5.96183
5.74172
5.51765
5.29157
5.0647
4.83757
4.61125
4.38683
4.16556
3.94842
3.73665
3.53069
3.33205
3.14691
2.97831
2.82378
2.67793
2.54001
2.41253
2.29615
2.1908
2.0964
2.01148
1.93443
1.86282
1.79479
1.7284
1.66177
1.59353
1.52261
1.44816
1.36925
1.28633
1.19937
1.10915
1.01723
0.92406
0.83202
0.741785
0.655412
0.574473
0.49996
0.433096
0.373994
0.322955
0.279965
0.244637
0.216026
0.193232
0.175878
0.163427
0.154482
0.147192
0.140853
0.135733
0.131759
8.86877
8.96745
9.11429
9.29077
9.4798
9.67298
9.86649
10.0579
10.2459
10.4296
10.6086
10.7823
10.9501
11.1114
11.2653
11.4107
11.5472
11.6745
11.795
11.9094
12.0181
12.1213
12.2189
12.3109
12.3975
12.479
12.5556
12.6275
12.6949
12.7581
12.8172
12.8722
12.9233
12.9703
13.0132
13.0517
13.0853
13.114
13.1374
13.1552
13.1673
13.1733
13.1729
13.1656
13.1511
13.1294
13.1
13.0627
13.0172
12.9624
12.898
12.8244
12.7412
12.6487
12.5444
12.4303
12.3054
12.1688
12.0204
11.8605
11.6891
11.5056
11.3099
11.1018
10.882
10.6503
10.4062
10.149
9.87826
9.5936
9.29277
8.97976
8.66048
8.33754
8.01189
7.68632
7.36216
7.04073
6.72345
6.41178
6.1072
5.81188
5.52871
5.25962
5.00501
4.76321
4.53388
4.31795
4.11616
3.9273
3.74988
3.5831
3.42592
3.27677
3.13375
2.99507
2.85916
2.72493
2.59161
2.45875
2.32572
2.1929
2.06015
1.9279
1.79683
1.66697
1.53967
1.41446
1.29193
1.17261
1.05738
0.946733
0.841392
0.742495
0.651614
0.569905
0.497239
0.433667
0.379861
0.335682
0.300064
0.270128
0.244354
0.223291
0.20704
11.6072
11.7304
11.905
12.1074
12.3217
12.539
12.755
12.9674
13.1748
13.3765
13.5718
13.7601
13.9406
14.1126
14.2754
14.4284
14.5711
14.7033
14.8265
14.9423
15.0513
15.1538
15.249
15.3371
15.4187
15.4943
15.5643
15.6289
15.6886
15.7437
15.7945
15.8411
15.8835
15.9215
15.9547
15.983
16.0059
16.0234
16.0352
16.0414
16.0417
16.0358
16.0232
16.0033
15.9758
15.9404
15.8966
15.8442
15.7827
15.7115
15.6307
15.5403
15.4401
15.3299
15.2084
15.0759
14.932
14.776
14.6078
14.4254
14.2313
14.0245
13.8041
13.5701
13.3235
13.0635
12.7901
12.5035
12.2042
11.8924
11.568
11.2315
10.8826
10.5235
10.1584
9.79172
9.42441
9.05907
8.69741
8.34117
7.99209
7.65194
7.32246
7.00489
6.70011
6.40804
6.12848
5.86174
5.6079
5.36605
5.13525
4.91474
4.70351
4.50041
4.304
4.11346
3.92759
3.74595
3.56804
3.39358
3.22204
3.05356
2.88802
2.72565
2.56645
2.40995
2.25677
2.10621
1.95775
1.81163
1.66827
1.5277
1.3909
1.25881
1.13188
1.01068
0.897164
0.792608
0.697706
0.61376
0.540903
0.475926
0.417371
0.367824
0.328206
13.7159
13.846
14.0253
14.2299
14.4446
14.6611
14.875
15.0842
15.2874
15.484
15.6732
15.8543
16.0267
16.19
16.3435
16.4872
16.6209
16.7445
16.8583