/*--------------------------------*- C++ -*----------------------------------*\
| =========                 |                                                 |
| \\      /  F ield         | OpenFOAM: The Open Source CFD Toolbox           |
|  \\    /   O peration     | Version:  2112                                  |
|   \\  /    A nd           | Website:  www.openfoam.com                      |
|    \\/     M anipulation  |                                                 |
\*---------------------------------------------------------------------------*/
FoamFile
{
    version     2.0;
    format      ascii;
    arch        "LSB;label=32;scalar=64";
    class       volScalarField;
    location    "0.00197";
    object      T;
}
// * * * * * * * * * * * * * * * * * * * * * * * * * * * * * * * * * * * * * //

dimensions      [0 0 0 1 0 0 0];

internalField   nonuniform List<scalar> 
13875
(
1411.78
1535
1482.69
1486.75
1481.08
1483.45
1483.52
1483.13
1483.84
1483.24
1484.45
1483.67
1483.66
1483.78
1482.94
1483.08
1483.67
1482.47
1483.36
1483.49
1480.88
1487.55
1480.74
1533.32
1397.79
1306.98
1356.05
1319.14
1322.06
1316.63
1317.09
1317.04
1317.86
1322.57
1322.48
1323.02
1317.96
1317.45
1317.63
1317.51
1321.42
1322.13
1317.65
1317.03
1317.12
1316.22
1321.99
1319.68
1356.27
1302.1
1307.09
1339.67
1314.65
1311.1
1303.94
1304.26
1303.69
1303.77
1305.1
1303.44
1305.83
1303.85
1303.69
1303.53
1303.43
1303.06
1304.8
1303.21
1303.44
1304.12
1303.51
1310.86
1311.61
1336.02
1297.06
1317.22
1344.99
1315.11
1308.73
1305.11
1304.73
1303.88
1303.9
1303.77
1302.22
1303.79
1303.9
1303.71
1303.58
1303.32
1302.31
1303.15
1303.32
1303.62
1304.5
1304.33
1307.63
1314.06
1343.77
1312.47
1329.39
1341.78
1316.13
1311.72
1303.49
1304.09
1303.98
1303.92
1303.52
1302.33
1304.08
1304.08
1303.89
1303.76
1303.63
1302.6
1303.08
1303.25
1303.74
1304.01
1303.16
1311.53
1312.23
1338.68
1316.74
1332.2
1351.47
1319.38
1309.99
1307.06
1306.2
1304.9
1304.55
1304.01
1302.64
1304.05
1304.35
1304.26
1304.13
1303.85
1302.68
1303.37
1303.91
1304.6
1305.91
1306.17
1308.36
1319.08
1349.17
1326.47
1339.14
1360.5
1329.61
1317.04
1307.09
1306.39
1305.47
1304.96
1304.31
1303.36
1304.81
1305.09
1305.02
1304.92
1304.58
1303.61
1303.9
1304.32
1305.18
1306.19
1306.64
1317.27
1326.05
1358.44
1321.58
1361.47
1386.01
1345.67
1321.94
1316.71
1312.33
1309.15
1307.39
1306.2
1305.05
1305.9
1306.45
1306.59
1306.46
1305.87
1305
1305.72
1306.61
1308.49
1311.45
1314.97
1320.72
1341.69
1381.29
1350.38
1534.39
1508.9
1389.22
1352.32
1323.96
1316.82
1313
1310.33
1309.32
1308.1
1308.84
1309.51
1309.82
1309.72
1308.92
1308.13
1308.88
1309.54
1312.08
1315.72
1322.01
1348.36
1384.4
1508
1523.14
1857.22
1587.31
1437.59
1367.88
1345.87
1329.15
1322.08
1318.2
1316.37
1314.79
1315.32
1315.96
1316.55
1316.44
1315.51
1314.82
1315.89
1317.14
1320.71
1327.26
1340.11
1363.61
1427.83
1568.37
1831.5
2519.55
1804.61
1538.37
1448.61
1366.72
1347.98
1338.44
1333.98
1331.2
1329.43
1329.81
1330.19
1331.03
1330.91
1330.06
1329.51
1330.87
1332.81
1336.71
1345.36
1361.09
1428.83
1515.56
1809.38
2447.46
2892.07
2296.43
2044.19
1527.08
1445.44
1409.27
1382.42
1374.5
1367.65
1365.09
1364.98
1364.5
1365.76
1365.36
1364.83
1364.75
1366.88
1372.29
1379.11
1405.23
1430.02
1490.21
1761.98
2308.64
2849
2851.65
2744.99
2621.85
2379.97
1640.88
1544.26
1518.22
1497.05
1484.23
1480.57
1480.45
1477.25
1481.24
1478.02
1478.25
1478.76
1482.43
1492.99
1510.6
1540.15
1652.67
2366.18
2427.73
2715.76
2787.94
2764.76
2725.1
2862.21
2852.54
2213.66
2228.99
2028.65
1936.74
1883.35
1842.31
1860.15
1820.94
1852.35
1829.33
1835.53
1840
1859.92
1917.99
2030.36
2187.1
2150.69
2859.99
2869.12
2734.01
2710.39
2659.83
2730.37
2859.94
2847.53
2872.2
3168.18
3428.32
3397.69
3658.45
3508.12
3655.59
3540.94
3642.67
3580.11
3630.56
3572.93
3600.61
3474.63
3446.73
3170.43
2896.61
2863.91
2857.71
2701.78
2673.45
2540.14
2646.72
2868.08
2980.42
2995.14
3322.23
3598.19
3683.97
3690.28
3676.51
3624.06
3647.92
3603.66
3641.2
3629.27
3663.33
3683.47
3721.77
3646.34
3432.74
3043.63
2978.88
2886.79
2674.73
2585.32
2477.75
2597.81
2733.61
2931.77
3023.88
3344.44
3571.13
3666.09
3667.62
3656.89
3612.46
3626.51
3595.25
3622.08
3612.08
3643.75
3668.48
3709.35
3638.7
3440.98
3093.68
2995.2
2792.16
2612.25
2503.2
2287.43
2559.08
2827.13
2944.04
2945.12
3193.68
3366.6
3459.58
3503.42
3501.98
3502.34
3498.15
3496.21
3500.1
3499.55
3508.26
3501.04
3485.67
3404.23
3239.49
3018.06
3012.89
2850.89
2570.63
2317.46
2200.99
2293.11
2604.71
2760.09
2736.4
2873.57
3116.92
3291.67
3381.26
3399.5
3402.81
3402.01
3403.35
3406.86
3402.4
3402.28
3402.23
3368.98
3193.12
2933.48
2781.07
2821.79
2658.53
2335.61
2250.11
2292.94
2234.97
2361.77
2524.4
2550.46
2628.23
2845.27
3081.48
3241.5
3302.19
3308.23
3313
3314.51
3316.49
3311.5
3313.8
3282.63
3150.45
2887.63
2668.34
2590.17
2572.51
2355.24
2256.35
2350.71
2905.82
2269.8
2182.86
2326.63
2393.95
2472.98
2669.2
2904.94
3088.47
3184.89
3213.81
3217.38
3218.95
3219.5
3215.96
3198.4
3126.15
2948.1
2691.38
2500.84
2424.79
2348.33
2167.06
2220.11
2805.57
2864.24
2044.06
1982.93
2173.82
2266.02
2363.3
2534.38
2758.8
2956.13
3069.4
3100.74
3112.63
3113.02
3113.38
3101.46
3078.29
2981.06
2782.55
2546.37
2391.24
2286.87
2177.65
1988.18
2033.25
2845.17
2878.15
2052.67
1888.29
2057.81
2165.95
2275.36
2421.33
2626.77
2821.08
2950.87
2997.15
3004.13
3006.64
3003.81
2995.72
2958.39
2845.05
2647.07
2436.43
2302.51
2189.37
2069.06
1871.22
2046.74
2962.15
2823.5
2036.53
1875.33
2001.89
2090.86
2192.57
2329.29
2529.03
2717.57
2840.35
2882.66
2899.23
2898.85
2897.37
2879.67
2846.08
2737.23
2543.09
2336.33
2213.61
2110.27
2010.41
1871.78
2012.54
2783.33
2752.01
2033.59
1904.82
1968.77
2026.89
2111.32
2243.5
2436.69
2613.15
2736.94
2784.6
2791.85
2796.52
2791.25
2781.21
2739.17
2623.69
2440.21
2246.4
2127.37
2056.79
1988.64
1892.69
2034.52
2765.35
2723.88
2056.72
1922.19
1951.12
1978.82
2045.95
2174.35
2359.94
2528.42
2638.47
2678.04
2695.06
2695.83
2693.8
2673.58
2640.11
2540.24
2365.45
2174.46
2059.31
2000.45
1971.77
1910.12
2028.22
2701.63
2697.03
2086.94
1947.77
1948.25
1937.02
1988.51
2113.08
2288.37
2441.92
2547.43
2591.82
2596.01
2601.23
2594.79
2586.11
2546.24
2449.96
2290.45
2114.09
1999.01
1963.21
1973.04
1937.62
2064.37
2687.2
2699.03
2154.53
1993.2
1941.48
1907.94
1948.65
2070.03
2233.6
2376.04
2462.24
2495.02
2509.19
2510.28
2508.43
2488.46
2460.49
2380.12
2231.75
2062.08
1955.47
1925.27
1956.85
1969.98
2123.98
2687.79
2729.62
2164.49
1988.87
1933.1
1893.49
1916.13
2022.65
2171.62
2297.62
2379.87
2420.23
2420.51
2426.73
2418.51
2414.89
2379.31
2307.7
2178.33
2026.54
1924.35
1916.97
1955.26
2000.3
2121.63
2681.21
2775.83
2181.4
2013.27
1938.87
1878.23
1896.97
1999.74
2133.18
2244.77
2309.02
2333.69
2345.46
2345.54
2343.5
2326.37
2306.7
2249.86
2135.33
1993.25
1902.98
1892
1949.13
2001.29
2154.45
2729.71
2742.31
2177.64
1997.28
1934.78
1859.85
1886.24
1973.01
2088.17
2180.8
2234.44
2271.53
2264.73
2273.17
2264.52
2265.05
2234.09
2186.43
2091.8
1970.83
1886.24
1881.78
1952.1
2012.82
2151.14
2725.94
2738.53
2183.71
2032.07
1939.29
1853.75
1870.64
1953.77
2057.15
2135.75
2177.19
2194.06
2201.63
2202.21
2200.68
2187.11
2176.59
2143.96
2065.37
1949.55
1874.22
1867.38
1942.23
2017.86
2159.22
2701.24
2711.85
2184.08
2045.37
1928.12
1844.54
1861.22
1934.41
2018.47
2082.16
2111.53
2143.58
2130.76
2139.93
2131.19
2136.5
2110.95
2085.77
2027.41
1936.94
1858.14
1860.9
1949.99
2040.79
2156.01
2695.41
2675.6
2176.03
2092.65
1948.7
1852.6
1849.72
1923.53
1996.47
2046.2
2066.65
2076.44
2077.88
2078.84
2078.23
2069.03
2067.04
2052.5
2003.79
1916.61
1847.3
1858.26
1946.73
2074.05
2157.97
2669.01
2671.56
2185.13
2114.54
1946.74
1859.95
1841.07
1901.24
1960.37
1996.06
2009.16
2035.45
2016.86
2026.1
2017.57
2028.84
2007.81
2000.35
1976.58
1909.6
1838.83
1871.31
1957.16
2126.49
2156.46
2647.22
2648.37
2176.27
2109.98
1963.05
1874.2
1838.37
1891.91
1941.03
1968.38
1975.64
1978.37
1974.61
1974.66
1974.64
1971
1976.22
1972.72
1946.85
1892.49
1834.36
1878.83
1974.14
2122.94
2160.42
2617.15
2622.47
2165.28
2108.53
1993.08
1891.19
1845.41
1876.66
1908.05
1922.18
1923.95
1946.08
1921.22
1931.18
1922.83
1939.79
1922.99
1925.17
1924.52
1889.29
1836.59
1891.78
2009.17
2119.95
2148.85
2589.89
2602.28
2149.42
2104.44
2045.93
1909.55
1858.85
1872.5
1890.72
1899.23
1898.52
1897.22
1888.83
1888.32
1889.51
1890.34
1899.93
1902.74
1892.36
1884.32
1858.76
1904.66
2052.25
2113.83
2130.43
2561.35
2584.15
2140.28
2089.99
2041.94
1933.21
1876.24
1866.84
1864.34
1857.81
1850.06
1870.88
1842.88
1852.85
1844.81
1864.06
1850.79
1861.69
1878.66
1883.91
1872.36
1932.88
2052.46
2096.61
2117.75
2549.11
2553.56
2118.74
2064.27
2039.58
1968.92
1893.12
1889.69
1854.86
1843.4
1834.82
1829.1
1817.05
1817.12
1818.94
1821.82
1835.65
1845.67
1856.57
1899.09
1894.69
1965.24
2048.54
2067.47
2109.48
2531.28
2541.56
2114.37
2028.56
2027.53
2037.14
1928.26
1894.68
1840.27
1810.72
1789.76
1807.18
1777.65
1787.64
1779.31
1800.88
1790.38
1815.23
1851.22
1912.91
1917.5
2035.28
2038.62
2031.72
2092.86
2510.66
2515.12
2100.66
2007.7
2016.55
2023.96
1953.39
1910.17
1856
1809.84
1786.88
1772.8
1758.12
1757.69
1759.13
1765.6
1789.13
1809.41
1857.57
1929.87
1957.29
2019.11
2025.33
2012.85
2086.41
2489.14
2497.49
2091.71
1980.8
1976.25
2026.52
2025.29
1925.87
1856.49
1792.55
1745.71
1755.67
1723.53
1733.59
1725.44
1750.11
1746.88
1796.14
1861.83
1949.34
2016.55
2019.69
1988.11
1985.94
2080.37
2474.71
2468.49
2083.36
1973.6
1953.58
1996.57
2041.66
1952.99
1878.76
1809.05
1765.44
1731.8
1709.96
1708.65
1711.79
1724.37
1769.33
1804.72
1871.35
1989.42
2042.15
1989.26
1965.94
1977.6
2062.2
2444.47
2454.55
2079.65
1956.48
1917.35
1974.65
2028.08
2005.75
1891.82
1801.62
1727.23
1725.21
1683.04
1690.72
1685.29
1719.65
1731.26
1808.23
1890.05
2056.69
2028.52
1960.89
1929.56
1960.06
2061.69
2432.56
2425.6
2058.55
1954.84
1909.52
1930.83
2014.31
2086.14
1950.24
1824.89
1772.01
1721.89
1683.02
1676.42
1685.76
1713.05
1773.44
1823.86
1927.42
2079.75
2006.47
1921.07
1918.91
1958.84
2047.09
2406.72
2412.97
2057.72
1942.32
1882.66
1906.89
1981.04
2064.06
2032.24
1840.01
1735.99
1727.39
1671.9
1672.72
1672.7
1719.82
1736.73
1844.75
1996.63
2060.89
1973.5
1901.98
1892.66
1944.28
2039.89
2396.25
2376.97
2037.24
1938.17
1891.98
1879.26
1947.04
2048.32
2068.29
1895.37
1790.67
1726.67
1686.17
1674.19
1689.98
1718.6
1793.11
1905.65
2060.89
2046.05
1933.88
1877.22
1903.55
1941.77
2025.15
2355.38
2346.63
2025.66
1922.79
1862.36
1868.39
1911.99
2019.37
2050.3
1989.55
1768.99
1742.29
1675.32
1677.84
1675.97
1735.05
1768.8
2000.09
2043.9
2019.15
1899.87
1865.81
1875.13
1926.9
2013.77
2329.99
2211.53
1978.65
1904.88
1870.73
1853.33
1884.64
1975.88
2036.91
2024.14
1875.31
1760.05
1699.07
1686.05
1703
1751.91
1870.06
2021.85
2033.99
1978.28
1875.52
1854.39
1881.67
1907.97
1966.48
2194.4
273.917
273.957
273.976
274.035
274.074
274.082
274.05
274.046
274.098
274.157
274.211
274.224
274.194
274.14
274.086
274.047
274.023
274.01
274.004
274.001
274
274
274
273.999
273.998
274
273.995
274.002
273.993
274.006
274.101
274.139
274.176
274.255
274.318
274.323
274.279
274.246
274.261
274.297
274.329
274.325
274.274
274.196
274.121
274.066
274.032
274.014
274.006
274.002
274
274
273.999
273.999
273.997
274
273.993
274.004
273.988
274.014
274.321
274.343
274.368
274.474
274.565
274.559
274.47
274.377
274.344
274.348
274.367
274.363
274.308
274.223
274.139
274.076
274.037
274.017
274.007
274.003
274.001
274
273.999
273.999
273.997
274
273.994
274.003
273.992
274.011
274.474
274.544
274.605
274.794
274.969
274.976
274.848
274.665
274.528
274.452
274.431
274.403
274.339
274.245
274.153
274.085
274.042
274.019
274.008
274.003
274.001
274
273.999
273.999
273.998
274
273.996
274.002
273.995
274.007
274.707
274.944
275.141
275.546
275.951
276.087
275.905
275.533
275.12
274.792
274.616
274.489
274.378
274.266
274.165
274.091
274.045
274.02
274.009
274.003
274.001
274
273.999
273.999
273.998
274
273.997
274.002
273.997
274.004
275.281
275.966
276.549
277.466
278.381
278.924
278.891
278.277
277.117
275.942
275.17
274.725
274.47
274.297
274.177
274.096
274.047
274.021
274.009
274.003
274.001
274
273.999
273.999
273.999
274
273.998
274.001
273.998
274.003
276.847
278.521
279.766
281.477
283.516
285.62
286.312
285.313
282.89
279.73
277.053
275.454
274.731
274.382
274.201
274.102
274.049
274.022
274.009
274.003
274.001
274
274
273.999
273.999
274
273.999
274.001
273.999
274.002
280.37
283.932
287
290.517
293.618
296.249
298.878
300.849
299.782
291.848
283.178
278.087
275.581
274.643
274.275
274.121
274.053
274.023
274.009
274.003
274.001
274
274
273.999
273.999
274
273.999
274.001
274
274.002
288.627
293.229
294.06
294.754
295.42
297.322
300.164
303.649
307.684
310.625
304.623
286.852
278.82
275.527
274.516
274.181
274.067
274.025
274.009
274.003
274.001
274
274
274
273.999
274
273.999
274.001
274
274.002
292.756
294.368
294.273
294.71
295.332
297.059
299.942
303.613
307.879
312.404
316.342
314.656
290.287
279.02
275.344
274.386
274.113
274.034
274.011
274.004
274.001
274
274
274
274
274
274
274
274
274.002
292.504
293.728
293.59
294.105
294.175
295.149
297.993
302.454
307.631
312.505
317.09
321.304
321.019
291.949
278.617
275.082
274.271
274.067
274.017
274.004
274.001
274
274
274
274
274
274
274
274
274.002
291.429
291.724
291.685
292.051
291.971
292.295
294.549
299.115
305.321
311.793
317.34
321.983
326.251
325.007
290.677
277.744
274.798
274.178
274.037
274.008
274.002
274.001
274
274
274
274
274
274
274
274.002
289.268
288.907
289.077
289.418
289.338
289.465
290.886
295.199
301.46
308.826
316.374
322.349
327.15
331.096
325.812
287.218
276.698
274.537
274.108
274.02
274.003
274.001
274
274
274
274
274
274
274.001
274.002
286.892
285.906
286.16
286.573
286.568
286.829
287.559
291.036
297.589
304.913
313.39
321.477
327.606
332.533
335.664
320.689
283.42
275.746
274.331
274.061
274.01
274.002
274
274
274
274
274
274
274.001
274.002
283.661
282.693
283.128
283.941
284.101
284.476
284.753
287.271
293.586
301.213
309.701
318.866
327.168
333.1
338.083
339.833
308.462
279.972
275.045
274.188
274.032
274.005
274.001
274
274
274
274
274
274.001
274.002
282.047
280.719
281.326
281.976
282.219
282.393
282.545
284.14
289.537
297.744
306.315
315.532
325.253
333.27
338.939
343.599
340.969
294.255
277.402
274.573
274.098
274.015
274.002
274.001
274
274
274
274
274.001
274.002
280.896
279.64
279.823
280.543
280.829
280.933
281.14
281.615
285.919
294.222
303.28
312.49
322.462
332.199
339.477
345.196
348.174
331.804
284.705
275.769
274.289
274.048
274.007
274.001
274.001
274
274
274
274.001
274.002
280.682
279.608
280.146
280.592
280.704
280.951
281.052
280.958
283.85
290.971
300.687
309.803
319.566
330.045
339.166
345.856
351.602
350.417
310.079
279.448
274.852
274.135
274.021
274.003
274.001
274
274
274
274
274.002
281.371
280.566
282.541
283.095
283.698
283.512
282.967
282.857
283.952
289.697
299.484
308.301
317.56
327.531
337.981
346.51
353.244
354.992
347.578
289.93
276.5
274.379
274.058
274.008
274.001
274
274.001
274
274
274.001
280.677
281.102
285.674
289.493
290.458
290.169
289.449
288.264
286.892
290.039
299.328
308.083
317.091
326.515
336.661
346.526
354.379
358.255
358.064
322.97
281.153
275.055
274.155
274.023
274.003
274
274
274.001
274.001
274.003
282.026
283.494
293.891
302.415
307.973
308.648
305.767
301.468
297.033
296.707
303.209
310.164
318.201
326.909
336.491
346.434
355.699
361.708
362.391
356.808
293.616
276.886
274.41
274.059
274.008
274.002
274
274
274.001
274.002
279
287.235
308.658
341.256
362.675
359.811
342.851
330.052
318.887
313.674
315.16
318.515
323.08
329.383
337.538
346.827
356.591
365.216
366.24
366.597
329.869
281.699
275.069
274.148
274.021
274.003
274.001
274
274
274.001
288.187
298.455
359.047
457.988
487.01
453.275
407.293
379.653
356.35
342.024
334.608
332.444
332.089
334.972
341.087
349.428
358.854
368.069
370.961
371.394
363.778
293.492
276.737
274.364
274.05
274.007
274.001
274.001
274.001
274.003
266.784
343.064
548.764
686.346
675.507
587.183
512.427
456.263
412.613
378.312
359.497
353.312
347.943
346.521
348.354
354.371
362.724
371.627
376.812
376.464
376.641
329.115
280.779
274.873
274.116
274.016
274.002
274.001
274.001
274.003
288.47
454.372
814.064
956.059
870.537
763.693
645.501
545.736
477.671
427.284
395.216
381.135
368.592
362.358
360.582
362.152
368.076
376.02
382.719
382.717
382.567
365.288
289.556
276.074
274.261
274.034
274.004
274
274
274.001
274.006
273.993
274.002
273.995
274
273.998
273.999
274
274
274
274.001
274.004
274.01
274.023
274.047
274.086
274.139
274.194
274.224
274.211
274.157
274.098
274.046
274.05
274.082
274.074
274.035
273.976
273.958
273.918
274.014
273.988
274.004
273.993
274
273.997
273.999
273.999
274
274
274.002
274.006
274.014
274.032
274.066
274.121
274.196
274.274
274.325
274.329
274.297
274.261
274.245
274.279
274.323
274.318
274.255
274.176
274.139
274.101
274.011
273.992
274.003
273.994
274
273.997
273.999
273.999
274
274.001
274.003
274.007
274.017
274.037
274.076
274.139
274.223
274.308
274.362
274.366
274.348
274.344
274.376
274.47
274.559
274.565
274.474
274.368
274.343
274.321
274.007
273.995
274.002
273.996
274
273.998
273.999
273.999
274
274.001
274.003
274.008
274.019
274.042
274.085
274.153
274.245
274.339
274.403
274.431
274.451
274.526
274.664
274.846
274.975
274.968
274.794
274.605
274.543
274.474
274.004
273.997
274.002
273.997
274
273.998
273.999
273.999
274
274.001
274.003
274.009
274.02
274.045
274.091
274.165
274.266
274.378
274.488
274.615
274.79
275.116
275.528
275.9
276.082
275.948
275.545
275.139
274.943
274.707
274.003
273.998
274.001
273.998
274
273.999
273.999
273.999
274
274.001
274.003
274.009
274.021
274.047
274.096
274.177
274.296
274.469
274.723
275.165
275.931
277.101
278.259
278.875
278.911
278.372
277.46
276.544
275.963
275.279
274.002
273.999
274.001
273.999
274
273.999
273.999
274
274
274.001
274.003
274.009
274.022
274.049
274.102
274.201
274.382
274.728
275.446
277.033
279.692
282.84
285.253
286.254
285.576
283.491
281.462
279.754
278.512
276.842
274.002
274
274.001
273.999
274
273.999
273.999
274
274
274.001
274.003
274.009
274.023
274.053
274.121
274.274
274.64
275.57
278.054
283.108
291.69
299.65
300.761
298.816
296.198
293.57
290.471
286.961
283.902
280.353
274.002
274
274.001
273.999
274
273.999
274
274
274
274.001
274.003
274.009
274.025
274.066
274.181
274.513
275.514
278.773
286.725
304.384
310.523
307.617
303.594
300.116
297.279
295.38
294.713
294.022
293.19
288.588
274.002
274
274
274
274
274
274
274
274
274.001
274.004
274.011
274.034
274.112
274.383
275.332
278.965
290.074
314.415
316.254
312.333
307.814
303.556
299.894
297.015
295.29
294.668
294.237
294.336
292.73
274.002
274
274
274
274
274
274
274
274
274.001
274.004
274.017
274.066
274.269
275.071
278.563
291.69
320.796
321.208
317.012
312.43
307.569
302.402
297.95
295.105
294.13
294.062
293.553
293.696
292.478
274.002
274
274
274
274
274
274
274
274.001
274.002
274.008
274.037
274.176
274.79
277.698
290.423
324.733
326.145
321.901
317.262
311.732
305.275
299.071
294.51
292.248
291.922
292.003
291.644
291.688
291.4
274.002
274.001
274
274
274
274
274
274
274.001
274.003
274.02
274.107
274.532
276.665
287.043
325.45
330.97
327.052
322.26
316.304
308.772
301.416
295.153
290.844
289.41
289.284
289.364
289.029
288.865
289.234
274.002
274.001
274
274
274
274
274
274
274.002
274.01
274.06
274.328
275.725
283.298
320.23
335.523
332.428
327.509
321.4
313.334
304.863
297.548
290.991
287.514
286.769
286.507
286.507
286.101
285.853
286.856
274.002
274.001
274
274
274
274
274
274.001
274.005
274.031
274.186
275.033
279.894
308.011
339.665
337.958
332.99
327.079
318.797
309.641
301.155
293.541
287.216
284.692
284.405
284.026
283.858
283.047
282.615
283.591
274.002
274.001
274
274
274
274
274.001
274.002
274.015
274.098
274.567
277.358
293.915
340.686
343.439
338.812
333.163
325.167
315.454
306.243
297.671
289.481
284.071
282.462
282.311
282.128
281.874
281.219
280.609
281.947
274.002
274.001
274
274
274
274.001
274.001
274.007
274.047
274.286
275.747
284.562
331.264
347.952
345.044
339.349
332.093
322.369
312.396
303.2
294.139
285.852
281.526
281.03
280.82
280.722
280.421
279.718
279.53
280.788
274.002
274
274
274
274
274.001
274.003
274.021
274.133
274.842
279.374
309.574
350.194
351.423
345.707
339.039
329.938
319.461
309.69
300.571
290.839
283.747
280.847
280.952
280.845
280.61
280.512
280.088
279.511
280.564
274.001
274
274
274.001
274
274.001
274.008
274.058
274.374
276.467
289.673
347.068
354.773
353.061
346.351
337.84
327.389
317.396
308.121
299.316
289.516
283.842
282.762
282.902
283.437
283.638
283.061
282.481
280.488
281.243
274.003
274.001
274.001
274
274
274.003
274.023
274.154
275.041
281.053
322.371
357.814
358.033
354.193
346.352
336.482
326.327
316.89
307.86
299.122
289.794
286.747
288.153
289.374
290.097
290.484
289.606
285.686
281.1
280.585
274.002
274.001
274
274
274.002
274.008
274.059
274.405
276.845
293.246
356.315
362.142
361.421
355.502
346.245
336.284
326.687
317.951
309.871
302.932
296.487
296.785
301.199
305.479
308.278
307.817
302.32
293.956
283.583
282.003
274.001
274
274
274.001
274.003
274.021
274.147
275.054
281.583
329.144
366.323
365.991
364.958
356.364
346.584
337.276
329.056
322.672
318.039
314.714
313.267
318.363
329.451
342.306
358.526
362.167
341.069
308.796
287.39
279.169
274.003
274.001
274.001
274.001
274.007
274.049
274.359
276.696
293.133
363.191
371.128
370.683
367.846
358.663
349.237
340.889
334.692
331.713
332.005
334.163
341.348
355.359
378.687
406.085
450.766
485.292
457.581
359.435
298.811
288.511
274.003
274.001
274.001
274.002
274.016
274.114
274.86
280.67
328.285
376.315
376.176
376.523
371.427
362.547
354.19
348.125
346.21
347.575
352.852
358.803
377.386
410.967
454.717
509.897
584.2
673.482
685.55
552.03
343.992
267.146
274.001
274
274
274.004
274.034
274.258
276.042
289.299
364.522
382.274
382.408
382.43
375.806
367.877
361.926
360.319
362.061
368.229
380.557
394.189
426.65
475.254
542.947
642.355
759.613
871.904
957.692
820.623
458.974
289.312
274.002
274.002
274.002
274.002
274.002
274.002
274.002
274.002
274.002
274.002
274.002
274.002
274.002
274.002
274.002
274.002
274.002
274.002
274.002
274.002
274.002
274.002
274.002
274.002
274.002
274.002
274.002
274.002
274.002
274.002
274.002
274.002
274.002
274.002
274.002
274.002
274.002
274.002
274.002
274.002
274.002
274.002
274.002
274.002
274.002
274.002
274.002
274.002
274.002
274.002
274.002
274.002
274.002
274.002
274.002
274.002
274.002
274.002
274.002
274.002
274.002
274.002
274.002
274.002
274.002
274.002
274.002
274.002
274.002
274.002
274.002
274.002
274.002
274.002
274.002
274.002
274.002
274.002
274.002
274.002
274.002
274.002
274.002
274.002
274.002
274.002
274.002
274.002
274.002
274.002
274.002
274.002
274.002
274.002
274.002
274.002
274.002
274.002
274.002
274.003
274.003
274.004
274.006
274.008
274.009
274.011
274.012
274.013
274.012
274.011
274.01
274.009
274.007
274.006
274.005
274.004
274.003
274.003
274.002
274.002
274.002
274.002
274.002
274.002
274.001
274.001
274.001
274.001
274
274
274
274
274
274
274
274
274
274
274
274
274
274
274
274
274
274
274
274
274
274
274
274
274
274
274
274
274
274
274
274
274
274
274
274
274
274
274
274
274
274
274
274
274
274
274
274
274
274
274
274
274
274
274
274
274
274
274
274
274
274
274
274
274
274
274
274
274
274
274
274
274
274
274
274
274
274
274
274
274
274
274
274
274
274
274
274
274
274
274
274
274.001
274.002
274.004
274.008
274.015
274.025
274.04
274.059
274.08
274.101
274.119
274.13
274.131
274.126
274.112
274.094
274.075
274.057
274.041
274.028
274.019
274.012
274.008
274.005
274.003
274.002
274.001
274.001
274
274
274
274
274
274
274
274
274
274
274
274
274
274
274
274
274
274
274
274
274
274
274
274
274
274
274
274
274
274
274
274
274
274
274
274
274
274
274
274
274
274
274
274
274
274
274
274
274
274
274
274
274
274
274
274
274
274
274
274
274
274
274
274
274
274
274
274
274
274
274
274
274
274
274
274
274
274
274
274
274
274
274
274
274
274
274
274
274
274
274
274
274
274
274
274.001
274.004
274.011
274.027
274.06
274.122
274.227
274.391
274.622
274.909
275.219
275.507
275.729
275.825
275.803
275.667
275.436
275.161
274.882
274.639
274.443
274.299
274.193
274.121
274.073
274.043
274.025
274.014
274.008
274.004
274.002
274.001
274
274
274
274
274
274
274
274
274
274
274
274
274
274
274
274
274
274
274
274
274
274
274
274
274
274
274
274
274
274
274
274
274
274
274
274
274
274
274
274
274
274
274
274
274
274
274
274
274
274
274
274
274
274
274
274
274
274
274
274
274
274
274
274
274
274
274
274
274
274
274
274
274
274
274
274
274
274
274
274
274
274
274
274
274
274
274
274
274
274
274
274.002
274.008
274.026
274.076
274.203
274.506
275.139
276.3
278.258
281.314
285.477
290.172
294.626
298.22
300.488
301.004
299.793
297.1
293.396
289.452
285.538
282.127
279.38
277.444
276.138
275.263
274.717
274.404
274.227
274.125
274.068
274.036
274.018
274.009
274
274
274
274
274
274
274
274
274
274
274
274
274
274
274
274
274
274
274
274
274
274
274
274
274
274
274
274
274
274
274
274
274
274
274
274
274
274
274
274
274
274
274
274
274
274
274
274
274
274
274
274
274
274
274
274
274
274
274
274
274
274
274
274
274
274
274
274
274
274
274
274
274
274
274
274
274
274
274
274
274
274
274
274
274
274
274
274
274
274.002
274.011
274.045
274.162
274.55
275.64
278.486
285.202
298.456
321.99
359.42
408.883
450.462
478.49
494.952
502.279
502.477
497.26
487.637
473.799
455.88
434.348
408.386
378.881
345.778
313.859
297.444
287.808
281.769
278.115
276.189
275.13
274.577
274.3
274.15
274.071
274
274
274
274
274
274
274
274
274
274
274
274
274
274
274
274
274
274
274
274
274
274
274
274
274
274
274
274
274
274
274
274
274
274
274
274
274
274
274
274
274
274
274
274
274
274
274
274
274
274
274
274
274
274
274
274
274
274
274
274
274
274
274
274
274
274
274
274
274
274
274
274
274
274
274
274
274
274
274
274
274
274
274
274
274
274
274
274.002
274.011
274.053
274.252
275.05
277.995
287.803
316.02
381.153
474.796
553.541
602.78
627.508
632.222
627.144
617.884
606.722
594.641
582.019
568.798
555.692
542.779
529.787
517.042
504.287
491.604
477.799
461.134
435.329
401.668
361.562
319.005
294.591
284.661
279.263
276.59
275.227
274.565
274
274
274
274
274
274
274
274
274
274
274
274
274
274
274
274
274
274
274
274
274
274
274
274
274
274
274
274
274
274
274
274
274
274
274
274
274
274
274
274
274
274
274
274
274
274
274
274
274
274
274
274
274
274
274
274
274
274
274
274
274
274
274
274
274
274
274
274
274
274
274
274
274
274
274
274
274
274
274
274
274
274
274
274
274
274.001
274.007
274.045
274.262
275.373
280.847
303.962
385.121
518.151
627.798
686.579
703.783
701.408
692.559
681.715
669.479
656.297
643.004
629.648
616.067
602.159
587.606
573.085
558.834
544.67
530.91
517.257
504.162
491.434
479.262
467.621
456.725
445.615
431.413
405.878
369
326.499
295.23
284.219
278.691
274
274
274
274
274
274
274
274
274
274
274
274
274
274
274
274
274
274
274
274
274
274
274
274
274
274
274
274
274
274
274
274
274
274
274
274
274
274
274
274
274
274
274
274
274
274
274
274
274
274
274
274
274
274
274
274
274
274
274
274
274
274
274
274
274
274
274
274
274
274
274
274
274
274
274
274
274
274
274
274
274
274
274
274
274.003
274.026
274.184
275.206
281.718
320.099
450.531
619.273
720.392
750.694
750.125
742.001
733.139
723.487
713.544
703.017
691.968
680.275
667.847
654.828
641.233
626.914
611.547
595.934
580.029
563.929
548.039
532.076
516.339
500.932
486.545
473.058
461.093
450.185
439.773
429.643
420.064
408.479
389.167
355.087
316.007
274
274
274
274
274
274
274
274
274
274
274
274
274
274
274
274
274
274
274
274
274
274
274
274
274
274
274
274
274
274
274
274
274
274
274
274
274
274
274
274
274
274
274
274
274
274
274
274
274
274
274
274
274
274
274
274
274
274
274
274
274
274
274
274
274
274
274
274
274
274
274
274
274
274
274
274
274
274
274
274
274
274
274.001
274.01
274.086
274.703
279.662
317.714
474.476
673.688
771.932
786.827
781.838
774.033
764.842
756.227
750.059
744.287
735.316
723.799
711.422
698.553
685.459
671.777
657.214
641.866
625.777
609.278
592.971
576.556
560.111
543.79
528.364
512.695
497.592
482.701
468.764
455.332
442.989
431.938
421.91
412.551
403.579
395.396
386.012
274
274
274
274
274
274
274
274
274
274
274
274
274
274
274
274
274
274
274
274
274
274
274
274
274
274
274
274
274
274
274
274
274
274
274
274
274
274
274
274
274
274
274
274
274
274
274
274
274
274
274
274
274
274
274
274
274
274
274
274
274
274
274
274
274
274
274
274
274
274
274
274
274
274
274
274
274
274
274
274
274
274.002
274.027
274.275
276.643
299.175
444.675
682.651
800.119
813.341
809.223
804.194
795.636
787.174
781.781
775.598
766.109
753.781
740.749
728.717
717.497
706.007
694.226
681.875
668.365
653.701
638.179
620.724
603.359
586.169
567.728
549.536
533.143
516.786
501.116
486.054
472.701
459.42
447.745
436.684
425.85
415.262
405.281
396.361
388.676
274
274
274
274
274
274
274
274
274
274
274
274
274
274
274
274
274
274
274
274
274
274
274
274
274
274
274
274
274
274
274
274
274
274
274
274
274
274
274
274
274
274
274
274
274
274
274
274
274
274
274
274
274
274
274
274
274
274
274
274
274
274
274
274
274
274
274
274
274
274
274
274
274
274
274
274
274
274
274
274
274.005
274.069
274.808
283.662
377.443
632.172
810.642
837.339
835.24
830.474
824.717
819.676
813.788
805.3
796.244
783.559
770.012
756.981
746.463
738.977
732.803
726.24
718.647
708.951
696.685
682.052
665.809
647.785
628.417
608.965
588.081
566.721
546.289
526.252
507.271
489.569
474.657
459.8
447.362
435.641
425.432
416.518
407.587
398.535
389.772
274
274
274
274
274
274
274
274
274
274
274
274
274
274
274
274
274
274
274
274
274
274
274
274
274
274
274
274
274
274
274
274
274
274
274
274
274
274
274
274
274
274
274
274
274
274
274
274
274
274
274
274
274
274
274
274
274
274
274
274
274
274
274
274
274
274
274
274
274
274
274
274
274
274
274
274
274
274
274
274.011
274.16
276.292
306.436
514.914
779.005
854.025
858.306
856.124
851.984
847.579
844.932
841.904
830.755
824.2
815.107
804.229
796.39
789.799
786.6
784.67
784.017
783.974
781.739
775.621
764.703
748.671
728.514
704.931
680.171
655.6
628.736
602.171