/*--------------------------------*- C++ -*----------------------------------*\
| =========                 |                                                 |
| \\      /  F ield         | OpenFOAM: The Open Source CFD Toolbox           |
|  \\    /   O peration     | Version:  2112                                  |
|   \\  /    A nd           | Website:  www.openfoam.com                      |
|    \\/     M anipulation  |                                                 |
\*---------------------------------------------------------------------------*/
FoamFile
{
    version     2.0;
    format      ascii;
    arch        "LSB;label=32;scalar=64";
    class       volScalarField;
    location    "0.00132";
    object      k;
}
// * * * * * * * * * * * * * * * * * * * * * * * * * * * * * * * * * * * * * //

dimensions      [0 2 -2 0 0 0 0];

internalField   nonuniform List<scalar> 
13875
(
812.075
3462.9
3540.06
3539.69
3542.53
3540.49
3540.9
3540.95
3540.35
3541.52
3545.04
3542.82
3536.28
3537.39
3541.91
3543.59
3541.66
3540.73
3540.63
3540.01
3541.95
3538.96
3540
3461.76
820.306
881.704
2937.24
3013.15
3001.32
3001.11
2997.55
2997.06
2997.17
2996.69
2997.19
2999.43
2998.33
2993.91
2995.01
2998.86
3000.5
2998.06
2997.5
2996.27
2996.89
3000.21
2999.32
3011.67
2934.83
894.19
993.368
2711.74
2777.91
2756.06
2756.97
2754.07
2753.03
2751.93
2742.17
2742.13
2746.56
2747.23
2749.91
2751.24
2747.5
2747.95
2747.25
2750.6
2751.5
2753.23
2756.32
2753.18
2774.63
2707.33
997.982
1091.18
2534.51
2581.42
2562.1
2564.85
2562.2
2560.84
2559.61
2548.39
2548.12
2552.58
2553.78
2557.66
2558.74
2553.2
2552.84
2553.57
2558.85
2559.38
2561.41
2564.24
2559.42
2579.21
2529.95
1093.71
1172.45
2381.27
2413.67
2393.31
2396.04
2393.62
2392.29
2390.76
2380.13
2379.62
2383.13
2384.18
2389.02
2389.78
2383.42
2383.06
2384.74
2390.32
2390.84
2392.82
2395.46
2391.14
2410.56
2375.79
1177.41
1241.76
2238.57
2271.77
2245.42
2249.14
2246.14
2244.36
2242.12
2231.77
2230.67
2233.61
2234.69
2240.2
2240.73
2233.5
2233.13
2235.81
2242
2242.93
2245.39
2248.59
2243.94
2268.06
2247.94
1247.72
1322.26
2124.14
2159.74
2121.31
2121.52
2116.86
2113.99
2110.65
2100.52
2099.13
2101.54
2102.68
2108.37
2108.19
2100.83
2100.58
2104.25
2111.01
2112.72
2116
2120.63
2120.2
2154.62
2096.88
1324.55
1414.89
2006.35
2077.21
2022.29
2016.35
2007.22
2001.43
1996.12
1986.02
1983.43
1985.42
1986.7
1992.31
1991.45
1983.93
1983.82
1989.12
1996.67
2000.02
2005.56
2014.24
2019.98
2069.63
1994.51
1422.25
1699.49
2037
2028.48
1950.45
1929.18
1915.04
1905.95
1898.24
1888.11
1884.1
1885.63
1887.12
1892.41
1890.77
1883.31
1883.45
1890.54
1898.94
1904.72
1912.93
1926.4
1945.26
2020.85
2037.28
1721.98
2546.79
2321.47
2037.27
1911.97
1874.94
1849.19
1834.86
1824.57
1814.72
1810.12
1810.82
1812.33
1816.82
1814.44
1807.74
1808.23
1815.93
1824.93
1833.8
1845.87
1868.98
1900.14
2018.77
2281.32
2533.82
3932.96
3049.51
2155.07
1959.49
1858.47
1815.38
1794.73
1781.22
1771.59
1766.55
1766.18
1767.22
1770.52
1767.79
1762.5
1763.75
1771.45
1781.05
1793.42
1810.59
1848
1934.65
2151.88
2961.25
3889.16
5149.47
6147.95
3270.88
2141.9
1945.43
1845.06
1801.29
1782.12
1770.04
1763.25
1761.4
1761.21
1763.14
1760.21
1757.11
1759.77
1768.31
1780.53
1798.22
1836.77
1915.88
2046.31
2948.16
6264.89
5135.72
5034.14
6439.45
8511.41
5014.7
2325.81
1986.22
1918.38
1888.41
1874.2
1870.84
1863.71
1866.65
1864.7
1863.11
1861.09
1865.63
1875.43
1890.11
1914.16
1981.44
2284.79
3875.98
7470.7
6892.61
5019.49
4771.91
5603.97
7473.53
10628
6139.32
3056.49
2786.58
2537.4
2496.27
2416.12
2485.6
2377.23
2510.19
2410.74
2432.51
2428.62
2461.92
2513.32
2708.19
3054.76
6306.65
9112.79
7299.96
5939.63
4857.61
4566.22
5071.16
6330.77
8326.47
7367.82
5972.23
6461.24
6116.82
6144.28
5929.37
6455.63
5895.29
6665.67
6220.36
6181.77
6048.53
5993.63
6025.11
6544.62
6124.91
7302.97
7608.43
6336.81
5339.65
4786.96
4379.89
4785.04
6020.28
7463.62
7467.17
9395.72
9046.34
6736.1
6260.99
6463.81
6246.21
6445.29
6361.63
6523.79
6304.76
6410.86
6296.35
6517.2
7819.27
9965.4
8074.8
7162.22
5946.45
4949.51
4616.58
4165.43
4744.99
5996.8
7193.63
7213.47
9424.46
7695.18
5407.46
5063.82
5031.42
4999.1
5016.42
5090.95
5084.86
4966.06
5036.6
5043.35
5233.81
6578.02
9716.92
7951.92
7154.95
6109.34
4831.04
4270.33
3685.71
4926.44
5839.04
6162.42
6138.75
7935.01
6686.81
4971.78
4448.05
4279.12
4194.73
4157.18
4228.81
4199.98
4163.48
4280.72
4419.64
4806.06
6131.57
7839.8
6567.79
6202.68
6056.33
5112.74
3756.94
3139.76
4851.99
5405.55
5334.93
5171.2
6194.51
6071.03
5060.39
4310.25
3896.04
3680.87
3575.06
3609.51
3587.59
3617.28
3816.61
4173.5
4853.93
5853.81
6244.79
5393.06
5399.68
5548.53
5106.46
3244.63
2904.45
4561.41
4744.91
4669.73
4527.7
5134.62
5446.85
4998.2
4259.31
3681.72
3342.15
3167.98
3166.84
3170.42
3292.13
3623.35
4178.91
4898.85
5381.57
5206.37
4671.55
4727.22
4831.82
4620.89
2993.64
3216.78
3927.51
4111.53
4114.27
4027.51
4480.59
4886.34
4681.21
4050.33
3443.78
3040.42
2824.98
2801.49
2834.44
3025.55
3435.67
4034.68
4651.77
4880.59
4562.79
4150.11
4181.16
4172.96
3937.43
3330.98
4017.93
3875.52
3712.68
3719.87
3651.47
4015.96
4399.85
4297.95
3760.55
3180.46
2760.05
2525.23
2486.79
2537.99
2761.19
3190.56
3766.97
4287.77
4411.83
4104.37
3763.96
3783.88
3748.34
3925.16
4098.27
4661.96
4249.4
3450.68
3380.6
3332.74
3630.25
3966.19
3904.38
3442.76
2907.25
2499.6
2264.46
2216.39
2272.28
2496.46
2907.53
3438.64
3895.06
3980.28
3713.11
3430.77
3436.72
3463.63
4318.05
4701.25
4830.64
4311.99
3207.25
3092.47
3048.46
3281.39
3577.5
3536.16
3107.51
2616.54
2245.6
2029.69
1984.01
2041.78
2252.95
2628.98
3117.32
3540.17
3598.51
3349.2
3137.97
3158.77
3223.92
4331.31
4818.96
4908.91
4245.04
2993.34
2859.25
2809.14
2984.51
3233.89
3197.27
2810.9
2364.58
2024.08
1828.9
1786.6
1840.98
2034.41
2376.95
2824.18
3209.04
3259.55
3044.33
2885.57
2924.1
3016.02
4282.38
4904.84
4986.7
4172.09
2835.49
2670.34
2607.12
2737.59
2936.44
2889.52
2539.19
2140.98
1835.08
1658.25
1616.63
1666.94
1840.94
2146.12
2543.05
2894.03
2956.57
2787.73
2667.63
2726.29
2857.33
4165.29
4976
5060.78
4133.38
2705.89
2515.63
2438.44
2527.57
2667.58
2600.93
2287.62
1937.01
1665.4
1510.74
1472.14
1518.58
1676.11
1949.46
2299.58
2616.36
2695.32
2575.46
2491.35
2567.97
2732.56
4170.84
5073.62
5165.93
4121.52
2602.94
2383.03
2300.48
2352.36
2440.38
2356.56
2071.95
1763.25
1523.32
1384.72
1347.19
1390.18
1531.01
1772.32
2078.8
2364.49
2460.78
2394.1
2345.54
2428.81
2625.72
4144.87
5192.04
5355.2
4072.83
2519.42
2260.19
2181.05
2204.53
2242.05
2140.85
1884.12
1612.8
1399.83
1276.17
1239.92
1279.11
1403.57
1614.73
1880.29
2137.29
2252.75
2238.02
2219.34
2296.74
2535.81
4035.21
5309.55
5427.66
3979.95
2442.67
2148.21
2066.15
2069.52
2063.48
1945.67
1710.72
1473.55
1288.23
1180.3
1146.54
1183.69
1296.21
1484.87
1720.83
1954.13
2077.95
2099.68
2100.47
2184.59
2458.08
3987.81
5511.57
5406.87
3889.22
2392.31
2061.24
1957.62
1946.11
1910.28
1781.42
1566.52
1357.2
1194.02
1097.31
1064.96
1099.91
1200.67
1366.55
1574.04
1787.39
1922.63
1973.19
1987.67
2092.7
2394.58
3931.81
5537.34
5392.37
3808.09
2351.61
1997.87
1859.49
1830.65
1777.29
1642.51
1444.65
1256.5
1110.75
1024.69
994.117
1026.38
1116.14
1264.98
1452.22
1647.13
1786.26
1853.81
1888.25
2021.18
2348.86
3874.84
5471.73
5329.11
3679
2330.87
1947.84
1774.05
1723.21
1653.23
1513.86
1331.38
1165.25
1036.89
959.854
930.869
962.729
1045.49
1179.05
1347.79
1527.86
1669.05
1747.39
1801.88
1968.34
2324.63
3841.32
5451.21
5327.5
3565.83
2309.5
1916.26
1704.48
1627.65
1543.17
1407.03
1239.1
1087.99
971.976
903.111
875.925
905.801
980.22
1102.06
1255.89
1422.05
1558.8
1650.87
1730.69
1929.6
2340.59
3755.35
5404.76
5335.64
3489.02
2262.87
1898.7
1652.21
1543.99
1446.6
1312.01
1156.66
1020.65
916.426
853.075
826.52
855.526
924.567
1034.6
1174.65
1328.89
1463.12
1566.49
1677.49
1924.73
2329.95
3650.43
5373.81
5278.55
3373.6
2190.49
1884.27
1614.11
1471.52
1358.47
1225.57
1083.14
960.164
864.906
808.15
783.742
811.598
875.047
978.085
1106.48
1248.79
1380.14
1495.86
1639.82
1923.95
2275.14
3574.86
5340.09
5253.6
3276.71
2124.42
1905.2
1590.68
1416.55
1284.89
1152.33
1019.16
906.984
821.086
769.005
744.973
772.09
830.599
923.98
1041.89
1175.36
1305.33
1439.49
1615.74
1959.93
2202.08
3462.13
5295.19
5246.35
3197.27
2056.88
1899.13
1587.21
1374.12
1224.82
1090.11
963.686
861.022
781.347
733.679
711.356
736.692
790.425
877.294
985.849
1112.16
1245.52
1398.21
1617.9
1965.76
2126.86
3348.92
5287.35
5219.06
3102.63
1965.27
1847.33
1594.54
1342.59
1178.2
1036.86
914.696
818.42
745.287
701.966
680.603
705.276
755.044
835.522
937.754
1061.33
1201.68
1369.54
1640.52
1929.68
2049.68
3261.9
5302.76
5215.82
3040.61
1876.63
1787.91
1633.64
1330.71
1143.27
996.209
874.309
782.788
714.08
673.589
653.52
676.668
722.371
798.05
896.082
1021.62
1167.21
1359.35
1698.59
1867.57
1949.86
3192.21
5280.51
5211.23
3013.92
1808.68
1720.04
1638.84
1341.87
1119.51
965.971
842.293
752.873
686.306
648.417
628.733
650.74
692.984
765.506
862.023
991.711
1144.71
1385.61
1720.77
1794.94
1865.3
3149.39
5269.92
5187.55
2968.34
1732.37
1643.16
1591.05
1380.7
1107.8
942.247
817.761
726.398
662.098
625.759
607.137
628.192
668.772
738.812
838.152
967.777
1144.49
1458.86
1666.7
1715.92
1813.08
3157.45
5250.94
5182.3
2939.27
1680.66
1567.91
1532.29
1418.16
1129.29
927.745
800.387
707.05
641.806
606.193
588.154
608.678
647.613
718.594
818.178
951.889
1177.85
1503.08
1600.84
1634.54
1747.18
3146.36
5215.97
5190.56
2947.14
1657.26
1503.7
1468.86
1397
1191.66
928.372
786.546
693.4
627.495
590.174
571.417
592.169
632.645
704.876
802.349
958.049
1270.6
1475.21
1529.92
1565.52
1714.89
3153.13
5185.76
5187.88
2933.03
1625.09
1447.21
1404.24
1352.77
1253.85
963.888
777.141
681.741
617.315
579.335
559.653
581.052
621.972
693.275
796.369
1016.94
1331.67
1427.39
1462.59
1511.82
1720.69
3172.3
5149.94
5166.94
2933.79
1625.79
1403.94
1346.66
1309.15
1257.79
1058.26
789.136
674.538
609.186
571.477
552.508
573.142
612.629
684.81
810.591
1120.27
1313.82
1375.79
1405
1467.46
1718.46
3166.21
5108.04
5142.75
2945.47
1637.71
1373.18
1299.11
1261.07
1221.78
1127.01
851.476
677.08
602.786
564.469
546.891
566.658
606.442
686.042
881.873
1191.63
1278.94
1322.62
1357.62
1436.18
1726.62
3161.27
5055.99
5063.81
2920.25
1630
1345.68
1257.87
1214.87
1184.54
1123.04
949.248
710.798
602.625
558.413
542.993
561.097
607.925
731.24
996.776
1179.58
1242
1276.89
1318.65
1416.33
1744.51
3155.09
4954.35
4933
2890.61
1624.48
1322.19
1224.47
1176.54
1144.06
1096
1012.72
811.386
624.116
559.46
543.618
561.431
631.344
844.645
1058.26
1154.13
1202.88
1237.28
1285.34
1394.85
1742.25
3123.52
4811.6
4558.58
2787.73
1614.45
1297.59
1193.66
1144.28
1109.15
1069.48
1008.15
901.974
707.955
571.392
553.479
574.021
720.018
935.895
1049.37
1126.13
1169.67
1204.38
1254.73
1369.26
1727.98
3005.47
4433.65
746.867
834.762
850.096
851.224
851.328
851.505
851.938
851.731
851.035
850.017
848.925
847.88
846.889
845.938
845.015
844.109
843.218
842.338
841.467
840.606
839.755
838.912
838.079
837.257
836.442
835.639
834.79
833.421
824.069
727.01
573.98
743.925
768.209
770.072
770.419
770.711
771.127
770.791
770.034
769.051
768.106
767.297
766.599
765.972
765.388
764.832
764.295
763.773
763.265
762.768
762.283
761.81
761.349
760.899
760.458
760.032
759.502
757.918
741.801
597.862
546.737
722.955
744.483
746.063
746.404
746.855
747.313
746.982
746.319
745.514
744.842
744.364
744.026
743.769
743.556
743.366
743.191
743.024
742.863
742.708
742.558
742.413
742.275
742.142
742.012
741.89
741.66
740.155
722.844
573.685
546.87
718.146
738.582
740.172
740.562
741.132
741.755
741.436
740.826
740.092
739.525
739.172
738.972
738.856
738.784
738.732
738.689
738.651
738.615
738.58
738.547
738.515
738.486
738.458
738.432
738.407
738.277
736.786
719.229
568.619
547.38
716.454
737.212
738.913
739.371
740.116
740.81
740.457
739.845
739.107
738.554
738.226
738.055
737.974
737.936
737.917
737.907
737.899
737.892
737.886
737.879
737.872
737.868
737.864
737.861
737.855
737.748
736.222
718.423
566.344
547.344
715.827
736.858
738.636
739.14
740.094
740.771
740.347
739.719
738.959
738.404
738.078
737.914
737.839
737.808
737.796
737.792
737.79
737.788
737.786
737.784
737.782
737.782
737.783
737.784
737.78
737.676
736.102
718.011
564.46
547.573
715.636
736.745
738.568
739.116
740.234
740.851
740.326
739.696
738.931
738.379
738.056
737.894
737.821
737.791
737.78
737.777
737.776
737.775
737.774
737.773
737.772
737.772
737.774
737.775
737.771
737.667
736.042
717.649
562.695
548.235
715.581
736.739
738.545
739.274
740.375
740.888
740.301
739.675
738.913
738.369
738.049
737.889
737.817
737.788
737.778
737.775
737.774
737.774
737.773
737.772
737.771
737.771
737.773
737.774
737.77
737.664
735.994
717.31
561.048
548.979
715.479
736.743
738.575
739.409
740.485
740.887
740.253
739.639
738.885
738.355
738.042
737.885
737.814
737.786
737.777
737.775
737.774
737.774
737.773
737.772
737.771
737.771
737.772
737.774
737.77
737.661
735.95
716.996
559.536
549.541
715.355
736.835
738.856
739.522
740.564
740.869
740.175
739.579
738.84
738.333
738.03
737.877
737.809
737.785
737.777
737.775
737.774
737.774
737.773
737.773
737.772
737.771
737.772
737.774
737.77
737.658
735.91
716.707
558.159
549.843
715.367
737.093
739.228
739.717
740.642
740.821
740.059
739.491
738.776
738.296
738.009
737.867
737.806
737.784
737.777
737.775
737.774
737.774
737.774
737.773
737.772
737.772
737.772
737.773
737.769
737.655
735.873
716.44
556.906
550.08
715.703
737.786
740.144
740.273
740.886
740.74
739.926
739.383
738.7
738.252
737.988
737.859
737.803
737.783
737.776
737.775
737.774
737.774
737.774
737.773
737.773
737.772
737.772
737.773
737.769
737.652
735.837
716.191
555.758
550.577
717.047
740.021
742.639
742.051
741.769
740.935
739.833
739.268
738.622
738.212
737.971
737.852
737.801
737.782
737.776
737.774
737.774
737.774
737.774
737.774
737.773
737.773
737.772
737.773
737.769
737.648
735.805
715.961
554.709
552.094
721.493
747.244
751.999
749.464
745.25
742.149
740.136
739.249
738.559
738.176
737.955
737.845
737.798
737.781
737.776
737.774
737.774
737.774
737.774
737.774
737.774
737.774
737.773
737.772
737.768
737.644
735.774
715.75
553.754
556.547
735.662
773.305
792.952
790.103
767.832
748.968
741.758
739.623
738.596
738.154
737.94
737.839
737.796
737.78
737.776
737.774
737.774
737.774
737.774
737.774
737.774
737.774
737.774
737.772
737.767
737.643
735.744
715.557
552.881
568.773
775.673
851.067
927.591
959.329
900.985
803.369
752.302
741.477
738.957
738.212
737.936
737.833
737.794
737.78
737.775
737.774
737.774
737.774
737.774
737.774
737.774
737.774
737.774
737.773
737.765
737.639
735.718
715.38
552.095
602.488
846.361
937.892
1056.93
1172.34
1240.62
1103.49
842.761
753.445
740.661
738.51
737.981
737.835
737.792
737.779
737.775
737.774
737.774
737.774
737.774
737.774
737.774
737.774
737.774
737.774
737.766
737.635
735.695
715.224
551.392
632.86
876.804
994.892
1136.16
1282.66
1406.85
1496.21
1280.97
854.566
750.591
739.804
738.186
737.863
737.794
737.779
737.775
737.774
737.774
737.774
737.774
737.774
737.774
737.774
737.774
737.774
737.767
737.635
735.676
715.089
550.77
639.049
904.786
1042.03
1178.12
1352.95
1483.82
1619.07
1700.02
1318.36
828.689
746.175
739.003
737.984
737.809
737.78
737.775
737.774
737.774
737.774
737.774
737.774
737.774
737.774
737.774
737.774
737.767
737.634
735.66
714.971
550.224
640.341
939.872
1087.36
1211.69
1381.55
1517.55
1656.14
1794.81
1825.83
1212.35
789.115
742.379
738.424
737.869
737.786
737.775
737.774
737.774
737.774
737.774
737.774
737.774
737.774
737.774
737.774
737.767
737.633
735.646
714.869
549.75
613.712
1005.99
1128.17
1267.88
1432.05
1545.14
1660.04
1790.73
1942.79
1812.3
1012.05
760.118
739.95
738.074
737.811
737.778
737.774
737.774
737.774
737.774
737.774
737.774
737.774
737.774
737.774
737.767
737.632
735.634
714.784
549.348
629.856
1072.79
1286.02
1445.48
1577.6
1634.14
1675.83
1765.76
1906.05
1999.02
1560.53
852.748
746.082
738.675
737.892
737.786
737.775
737.774
737.774
737.774
737.774
737.774
737.774
737.775
737.774
737.767
737.631
735.624
714.714
549.011
770.528
1283.28
1512.62
1809.53
2097.89
1903.99
1786.91
1753.08
1834.63
1985.03
1954.32
1171.04
773.763
740.553
738.104
737.812
737.777
737.774
737.774
737.774
737.774
737.774
737.774
737.775
737.774
737.767
737.631
735.616
714.659
548.737
1074.27
1933.68
2446.18
3022.07
3723.77
2559
2023.97
1816.13
1795.21
1900.27
1989.39
1628.7
872.149
746.973
738.646
737.878
737.784
737.775
737.774
737.774
737.774
737.774
737.774
737.775
737.774
737.767
737.63
735.611
714.619
548.524
2655.74
5651.45
6462.01
7769.86
6548.73
3986.59
2522.99
2027.22
1844.44
1846.31
1921.18
1872.16
1110.59
767.977
739.998
738.022
737.8
737.776
737.774
737.774
737.774
737.774
737.774
737.775
737.774
737.767
737.63
735.608
714.59
548.368
727.011
824.071
833.424
834.794
835.644
836.448
837.264
838.088
838.921
839.765
840.619
841.481
842.353
843.234
844.127
845.033
845.959
846.911
847.903
848.95
850.043
851.062
851.76
851.968
851.537
851.361
851.259
850.134
834.8
746.924
597.861
741.801
757.918
759.502
760.032
760.458
760.899
761.349
761.81
762.283
762.768
763.265
763.773
764.295
764.832
765.388
765.972
766.599
767.297
768.106
769.051
770.034
770.791
771.127
770.71
770.418
770.071
768.21
743.924
573.992
573.682
722.843
740.155
741.66
741.89
742.013
742.142
742.276
742.414
742.559
742.709
742.864
743.024
743.191
743.367
743.557
743.77
744.027
744.365
744.844
745.516
746.32
746.984
747.315
746.857
746.405
746.065
744.486
722.962
546.717
568.618
719.229
736.786
738.277
738.407
738.432
738.458
738.486
738.515
738.547
738.581
738.615
738.651
738.689
738.732
738.784
738.856
738.972
739.172
739.525
740.092
740.827
741.436
741.755
741.132
740.562
740.172
738.583
718.157
546.915
566.345
718.423
736.223
737.748
737.855
737.861
737.864
737.868
737.872
737.879
737.886
737.892
737.899
737.907
737.917
737.936
737.974
738.055
738.226
738.555
739.107
739.845
740.456
740.81
740.115
739.37
738.913
737.211
716.442
547.401
564.459
718.01
736.102
737.676
737.78
737.784
737.783
737.782
737.782
737.784
737.786
737.788
737.79
737.792
737.796
737.808
737.839
737.914
738.078
738.404
738.959
739.718
740.346
740.77
740.094
739.139
738.636
736.859
715.83
547.298
562.695
717.65
736.043
737.667
737.771
737.775
737.774
737.772
737.772
737.773
737.774
737.775
737.776
737.777
737.78
737.791
737.821
737.894
738.056
738.379
738.931
739.695
740.325
740.851
740.234
739.115
738.568
736.746
715.641
547.639
561.049
717.31
735.994
737.664
737.77
737.774
737.773
737.771
737.771
737.772
737.773
737.774
737.774
737.775
737.778
737.788
737.817
737.889
738.049
738.369
738.912
739.675
740.301
740.888
740.374
739.274
738.545
736.737
715.57
548.207
559.536
716.996
735.95
737.661
737.77
737.774
737.772
737.771
737.771
737.772
737.773
737.774
737.774
737.775
737.777
737.786
737.814
737.885
738.042
738.355
738.885
739.639
740.253
740.888
740.485
739.409
738.576
736.743
715.485
548.98
558.16
716.708
735.911
737.658
737.77
737.774
737.772
737.771
737.772
737.773
737.773
737.774
737.774
737.775
737.777
737.785
737.809
737.877
738.03
738.333
738.84
739.58
740.176
740.868
740.564
739.522
738.855
736.834
715.347
549.552
556.905
716.439
735.873
737.655
737.769
737.773
737.772
737.772
737.772
737.773
737.774
737.774
737.774
737.775
737.777
737.784
737.806
737.867
738.009
738.295
738.776
739.49
740.058
740.821
740.642
739.717
739.229
737.094
715.374
549.808
555.758
716.191
735.838
737.652
737.769
737.773
737.772
737.772
737.773
737.773
737.774
737.774
737.774
737.775
737.776
737.783
737.803
737.859
737.988
738.252
738.7
739.383
739.926
740.741
740.887
740.275
740.145
737.788
715.706
550.107
554.71
715.961
735.805
737.648
737.769
737.773
737.772
737.773
737.773
737.774
737.774
737.774
737.774
737.774
737.776
737.782
737.801
737.852
737.971
738.212
738.622
739.268
739.833
740.936
741.767
742.052
742.64
740.023
717.041
550.578
553.754
715.75
735.774
737.644
737.768
737.772
737.773
737.774
737.774
737.774
737.774
737.774
737.774
737.774
737.776
737.781
737.798
737.845
737.955
738.176
738.559
739.249
740.136
742.15
745.249
749.464
752.001
747.247
721.491
552.086
552.881
715.557
735.744
737.643
737.767
737.772
737.774
737.774
737.774
737.774
737.774
737.774
737.774
737.774
737.776
737.78
737.796
737.839
737.94
738.154
738.597
739.624
741.757
748.959
767.795
790.047
792.915
773.297
735.651
556.539
552.095
715.38
735.718
737.639
737.765
737.773
737.774
737.774
737.774
737.774
737.774
737.774
737.774
737.774
737.775
737.78
737.794
737.833
737.936
738.212
738.957
741.476
752.278
803.189
900.569
958.882
927.361
850.981
775.595
568.759
551.392
715.224
735.695
737.635
737.766
737.774
737.774
737.774
737.774
737.774
737.774
737.774
737.774
737.774
737.775
737.779
737.792
737.835
737.981
738.51
740.66
753.414
842.403
1102.25
1239.29
1171.34
1056.48
937.643
846.165
602.352
550.769
715.089
735.676
737.635
737.767
737.774
737.774
737.774
737.774
737.774
737.774
737.774
737.774
737.774
737.775
737.779
737.794
737.863
738.186
739.802
750.559
854.079
1278.82
1493.93
1405.12
1281.41
1135.57
994.6
876.635
632.731
550.225
714.971
735.66
737.634
737.767
737.774
737.774
737.774
737.774
737.774
737.774
737.774
737.774
737.774
737.775
737.78
737.809
737.985
739.002
746.158
828.286
1315.87
1696.86
1616.66
1481.9
1351.54
1177.43
1041.68
904.618
638.95
549.751
714.869
735.646
737.633
737.767
737.774
737.774
737.774
737.774
737.774
737.774
737.774
737.774
737.774
737.775
737.786
737.869
738.424
742.372
788.917
1210.27
1822.23
1791.76
1653.63
1515.17
1380.04
1210.85
1087
939.662
640.183
549.347
714.784
735.634
737.632
737.767
737.774
737.774
737.774
737.774
737.774
737.774
737.774
737.774
737.774
737.778
737.811
738.074
739.947
760.036
1010.57
1808.15
1939.12
1787.73
1656.96
1541.45
1429.96
1266.66
1127.5
1005.57
613.411
549.011
714.714
735.624
737.631
737.767
737.774
737.775
737.774
737.774
737.774
737.774
737.774
737.774
737.775
737.786
737.892
738.675
746.067
852.267
1557.28
1995.55
1902.81
1762.12
1671.09
1626.67
1572.39
1442.65
1284.88
1072.9
629.51
548.738
714.659
735.616
737.631
737.767
737.774
737.775
737.774
737.774
737.774
737.774
737.774
737.774
737.777
737.812
738.104
740.554
773.711
1170.01
1951.69
1982.07
1830.64
1747.34
1778.68
1887.98
2081.08
1802.86
1509.19
1281.79
770.448
548.523
714.618
735.611
737.63
737.767
737.774
737.775
737.774
737.774
737.774
737.774
737.774
737.775
737.784
737.878
738.647
746.976
871.971
1627.04
1986.82
1896.57
1789.42
1806.97
2007.05
2520.31
3666.85
2991.61
2432.07
1927.34
1066.34
548.368
714.59
735.608
737.63
737.767
737.774
737.775
737.774
737.774
737.774
737.774
737.774
737.776
737.8
738.023
740.004
768.036
1110.91
1870.98
1918.44
1841.11
1835.51
2010.09
2490.36
3902.54
6379.19
7567.02
6360.32
5544.97
2604.37
497.017
497.459
497.913
498.366
498.819
499.271
499.723
500.174
500.624
501.073
501.522
501.97
502.417
502.864
503.309
503.755
504.199
504.643
505.086
505.528
505.97
506.411
506.851
507.291
507.73
508.168
508.606
509.043
509.479
509.915
510.35
510.784
511.218
511.65
512.083
512.514
512.945
513.375
513.805
514.234
514.662
515.09
515.517
515.943
516.368
516.793
517.218
517.641
518.064
518.487
518.908
519.329
519.75
520.17
520.589
521.007
521.425
521.842
522.259
522.675
523.09
523.505
523.919
524.332
524.745
525.157
525.568
525.979
526.389
526.799
527.208
527.616
528.024
528.431
528.838
529.243
529.649
530.053
530.457
530.861
531.264
531.666
532.067
532.468
532.869
533.268
533.667
534.066
534.464
534.861
535.258
535.654
536.05
536.445
536.839
537.233
537.626
538.018
538.41
538.802
539.192
539.583
539.972
540.361
540.75
541.138
541.525
541.911
542.298
542.683
543.068
543.452
543.836
544.22
544.602
544.984
545.366
545.747
546.127
546.507
546.886
547.265
547.642
548.008
548.318
698.597
698.8
698.972
699.139
699.304
699.468
699.631
699.794
699.955
700.116
700.277
700.436
700.595
700.753
700.91
701.067
701.223
701.378
701.533
701.686
701.84
701.992
702.144
702.295
702.445
702.594
702.743
702.891
703.039
703.186
703.332
703.478
703.622
703.767
703.91
704.053
704.195
704.337
704.478
704.618
704.758
704.897
705.035
705.173
705.31
705.446
705.582
705.717
705.852
705.986
706.119
706.252
706.384
706.516
706.647
706.778
706.907
707.037
707.165
707.293
707.421
707.548
707.674
707.8
707.925
708.05
708.174
708.297
708.42
708.543
708.664
708.786
708.907
709.027
709.146
709.266
709.384
709.502
709.62
709.737
709.853
709.969
710.085
710.2
710.314
710.428
710.542
710.655
710.767
710.879
710.99
711.101
711.212
711.321
711.431
711.54
711.648
711.756
711.864
711.971
712.077
712.184
712.289
712.394
712.499
712.603
712.707
712.81
712.913
713.016
713.117
713.219
713.32
713.421
713.521
713.621
713.72
713.819
713.917
714.015
714.112
714.209
714.306
714.406
714.513
732.5
732.55
732.59
732.628
732.666
732.703
732.74
732.777
732.814
732.85
732.886
732.922
732.957
732.992
733.027
733.061
733.096
733.13
733.163
733.197
733.23
733.263
733.296
733.328
733.36
733.392
733.424
733.455
733.486
733.517
733.548
733.578
733.609
733.639
733.668
733.698
733.727
733.756
733.785
733.813
733.842
733.87
733.898
733.926
733.953
733.98
734.007
734.034
734.061
734.087
734.114
734.14
734.165
734.191
734.216
734.242
734.267
734.292
734.316
734.341
734.365
734.389
734.413
734.437
734.46
734.483
734.507
734.53
734.552
734.575
734.598
734.62
734.642
734.664
734.686
734.707
734.729
734.75
734.771
734.792
734.813
734.834
734.854
734.875
734.895
734.915
734.935
734.954
734.974
734.993
735.013
735.032
735.051
735.07
735.089
735.107
735.126
735.144
735.162
735.18
735.198
735.216
735.233
735.251
735.268
735.285
735.302
735.319
735.336
735.353
735.37
735.386
735.403
735.419
735.435
735.451
735.467
735.483
735.498
735.514
735.529
735.544
735.56
735.576
735.594
737.248
737.256
737.261
737.267
737.272
737.278
737.283
737.288
737.294
737.299
737.304
737.309
737.314
737.319
737.324
737.328
737.333
737.338
737.343
737.347
737.352
737.356
737.361
737.365
737.369
737.374
737.378
737.382
737.386
737.39
737.394
737.398
737.402
737.406
737.41
737.414
737.417
737.421
737.425
737.429
737.432
737.436
737.439
737.443
737.446
737.45
737.453
737.456
737.46
737.463
737.466
737.469
737.472
737.475
737.479
737.482
737.485
737.488
737.491
737.493
737.496
737.499
737.502
737.505
737.507
737.51
737.513
737.516
737.518
737.521
737.523
737.526
737.528
737.531
737.533
737.536
737.538
737.541
737.543
737.545
737.548
737.55
737.552
737.554
737.557
737.559
737.561
737.563
737.565
737.567
737.569
737.571
737.573
737.575
737.577
737.579
737.581
737.583
737.585
737.587
737.589
737.591
737.592
737.594
737.596
737.598
737.6
737.601
737.603
737.605
737.606
737.608
737.61
737.611
737.613
737.615
737.616
737.618
737.619
737.621
737.622
737.624
737.625
737.627
737.629
737.734
737.735
737.735
737.736
737.736
737.737
737.738
737.738
737.739
737.739
737.74
737.74
737.741
737.741
737.742
737.742
737.742
737.743
737.743
737.744
737.744
737.745
737.745
737.745
737.746
737.746
737.747
737.747
737.747
737.748
737.748
737.749
737.749
737.749
737.75
737.75
737.75
737.751
737.751
737.751
737.752
737.752
737.752
737.752
737.753
737.753
737.753
737.754
737.754
737.754
737.755
737.755
737.755
737.755
737.756
737.756
737.756
737.756
737.757
737.757
737.757
737.757
737.757
737.758
737.758
737.758
737.758
737.759
737.759
737.759
737.759
737.759
737.76
737.76
737.76
737.76
737.76
737.761
737.761
737.761
737.761
737.761
737.761
737.762
737.762
737.762
737.762
737.762
737.762
737.763
737.763
737.763
737.763
737.763
737.763
737.763
737.764
737.764
737.764
737.764
737.764
737.764
737.764
737.765
737.765
737.765
737.765
737.765
737.765
737.765
737.765
737.766
737.766
737.766
737.766
737.766
737.766
737.766
737.767
737.767
737.767
737.767
737.767
737.767
737.767
737.772
737.772
737.772
737.772
737.772
737.772
737.772
737.772
737.772
737.772
737.772
737.772
737.772
737.772
737.772
737.772
737.772
737.773
737.773
737.773
737.773
737.773
737.773
737.773
737.773
737.773
737.773
737.773
737.773
737.773
737.773
737.773
737.773
737.773
737.773
737.773
737.773
737.773
737.773
737.773
737.773
737.773
737.773
737.773
737.773
737.773
737.773
737.773
737.773
737.773
737.773
737.773
737.773
737.773
737.773
737.773
737.773
737.773
737.773
737.773
737.773
737.773
737.774
737.774
737.774
737.774
737.774
737.774
737.774
737.774
737.774
737.774
737.774
737.774
737.774
737.774
737.774
737.774
737.774
737.774
737.774
737.774
737.774
737.774
737.774
737.774
737.774
737.774
737.774
737.774
737.774
737.774
737.774
737.774
737.774
737.774
737.774
737.774
737.774
737.774
737.774
737.774
737.774
737.774
737.774
737.774
737.774
737.774
737.774
737.774
737.774
737.774
737.774
737.774
737.774
737.774
737.774
737.774
737.774
737.774
737.774
737.774
737.774
737.774
737.774
737.774
737.774
737.774
737.774
737.774
737.774
737.774
737.774
737.774
737.774
737.774
737.774
737.774
737.774
737.774
737.774
737.774
737.774
737.774
737.774
737.774
737.774
737.774
737.774
737.774
737.774
737.774
737.774
737.774
737.774
737.774
737.774
737.774
737.774
737.774
737.774
737.774
737.774
737.774
737.774
737.774
737.774
737.774
737.774
737.774
737.774
737.774
737.774
737.774
737.774
737.774
737.774
737.774
737.774
737.774
737.774
737.774
737.774
737.774
737.774
737.774
737.774
737.774
737.774
737.774
737.774
737.774
737.774
737.774
737.774
737.774
737.774
737.774
737.774
737.774
737.774
737.774
737.774
737.774
737.774
737.774
737.774
737.774
737.774
737.774
737.774
737.774
737.774
737.774
737.774
737.774
737.774
737.774
737.774
737.774
737.774
737.774
737.774
737.774
737.774
737.774
737.774
737.774
737.774
737.774
737.774
737.774
737.774
737.774
737.774
737.774
737.774
737.774
737.774
737.774
737.774
737.774
737.775
737.775
737.775
737.775
737.775
737.775
737.775
737.775
737.774
737.774
737.774
737.774
737.774
737.774
737.774
737.774
737.774
737.774
737.774
737.774
737.774
737.774
737.774
737.774
737.774
737.774
737.774
737.774
737.774
737.774
737.774
737.774
737.774
737.774
737.774
737.774
737.774
737.774
737.774
737.774
737.774
737.774
737.774
737.774
737.774
737.774
737.774
737.774
737.774
737.774
737.774
737.774
737.774
737.774
737.774
737.774
737.774
737.774
737.774
737.774