/*--------------------------------*- C++ -*----------------------------------*\
| =========                 |                                                 |
| \\      /  F ield         | OpenFOAM: The Open Source CFD Toolbox           |
|  \\    /   O peration     | Version:  2112                                  |
|   \\  /    A nd           | Website:  www.openfoam.com                      |
|    \\/     M anipulation  |                                                 |
\*---------------------------------------------------------------------------*/
FoamFile
{
    version     2.0;
    format      ascii;
    arch        "LSB;label=32;scalar=64";
    class       volScalarField;
    location    "0.00519";
    object      nut;
}
// * * * * * * * * * * * * * * * * * * * * * * * * * * * * * * * * * * * * * //

dimensions      [0 2 -1 0 0 0 0];

internalField   nonuniform List<scalar> 
13875
(
0.0511677
0.0366259
0.0343646
0.0343339
0.0342966
0.0343423
0.0342841
0.034276
0.0343052
0.0343031
0.0342901
0.0342916
0.0343174
0.0343432
0.0343281
0.0342904
0.0342862
0.0342854
0.0342892
0.0343396
0.034298
0.0343307
0.0343849
0.0365637
0.0514297
0.0532623
0.0341202
0.0322208
0.0321106
0.0320614
0.0320892
0.0320282
0.0320286
0.032063
0.0320597
0.0320477
0.0320459
0.0320504
0.0320751
0.0320572
0.032024
0.032023
0.0320361
0.0320323
0.0320826
0.0320587
0.032103
0.0322318
0.0340476
0.0536456
0.0564574
0.0335618
0.0318012
0.0315964
0.0315686
0.0315804
0.0314646
0.0314483
0.0314829
0.0314758
0.0314506
0.0314658
0.0315294
0.0315584
0.0315293
0.0314376
0.0314284
0.0314519
0.0314676
0.0315704
0.0315595
0.0315841
0.0317985
0.0334916
0.0566058
0.0590712
0.0332327
0.0314881
0.0312795
0.0312615
0.0312651
0.0311419
0.0311191
0.0311396
0.0311271
0.0310977
0.0311196
0.0312136
0.0312429
0.0312109
0.0310999
0.0310921
0.0311091
0.0311355
0.031252
0.0312485
0.031269
0.0314891
0.0331711
0.0591538
0.0611267
0.0330038
0.0312454
0.0310049
0.0309845
0.0309804
0.0308555
0.0308334
0.0308506
0.0308374
0.030809
0.0308293
0.0309268
0.030957
0.0309221
0.0308118
0.0308062
0.030823
0.0308476
0.0309652
0.0309696
0.0309976
0.0312351
0.0329241
0.0612672
0.0628195
0.0328481
0.031089
0.0307728
0.0307517
0.0307313
0.0305952
0.0305723
0.0305877
0.0305745
0.030546
0.0305653
0.0306662
0.0306971
0.0306601
0.0305505
0.0305464
0.0305626
0.0305884
0.0307128
0.0307353
0.0307682
0.0310633
0.0328284
0.062976
0.0648278
0.033073
0.0311048
0.0306337
0.0305678
0.0305244
0.0303718
0.0303425
0.0303511
0.0303374
0.0303089
0.0303274
0.0304324
0.0304618
0.0304221
0.0303154
0.0303126
0.0303295
0.0303643
0.0305037
0.0305536
0.0306408
0.0311194
0.0330774
0.0648694
0.0670944
0.0339361
0.0314261
0.0306514
0.0304838
0.0303757
0.0301903
0.030144
0.0301445
0.0301293
0.0301014
0.0301157
0.0302268
0.030257
0.0302148
0.0301111
0.0301094
0.03013
0.0301792
0.0303476
0.0304594
0.0306357
0.0313942
0.0338979
0.0673578
0.0736448
0.0362951
0.032044
0.030848
0.0304766
0.0302904
0.0300604
0.0299861
0.0299738
0.0299592
0.0299342
0.0299449
0.0300619
0.0300939
0.0300514
0.0299513
0.0299491
0.0299702
0.0300357
0.0302496
0.030449
0.0308137
0.0319468
0.0360179
0.0742104
0.0828884
0.0384664
0.032733
0.0311856
0.0305934
0.0302646
0.0299992
0.0299109
0.0298807
0.0298639
0.0298432
0.0298529
0.0299697
0.0300045
0.0299672
0.0298785
0.0298713
0.0298956
0.0299675
0.0302142
0.0305456
0.0311417
0.0326306
0.0381055
0.0834971
0.0907122
0.0441458
0.0346565
0.0320171
0.030864
0.0303931
0.0300814
0.0299501
0.0299051
0.0298817
0.0298614
0.02987
0.0299804
0.03002
0.0299965
0.0299273
0.0299187
0.0299516
0.0300603
0.0303206
0.030813
0.0319305
0.0344174
0.0433172
0.0893765
0.0950527
0.0545786
0.0403684
0.0334601
0.0319393
0.0309133
0.0303986
0.0302136
0.0301324
0.0300966
0.0300736
0.0300828
0.0301769
0.0302251
0.0302192
0.0301725
0.0301741
0.0302376
0.0303906
0.0308765
0.0318266
0.0332186
0.0398278
0.0533638
0.0942647
0.0866069
0.0689729
0.0514927
0.0417482
0.0344622
0.0320642
0.0314211
0.0309672
0.0308024
0.0307187
0.0306785
0.0306795
0.0307496
0.030806
0.0308265
0.0308202
0.0308725
0.0310392
0.0314745
0.0321357
0.0348638
0.0415925
0.0505406
0.0683088
0.086624
0.0795362
0.0660132
0.0581746
0.0660292
0.0420721
0.0374439
0.0339498
0.0329407
0.0325094
0.0324045
0.032361
0.0323662
0.0324276
0.0324825
0.0325122
0.0325222
0.0326112
0.0330231
0.0343702
0.0384615
0.0438126
0.0658556
0.0576475
0.0657937
0.0815914
0.0753217
0.0644827
0.0567535
0.0611413
0.0565295
0.054738
0.0450711
0.0404672
0.0387716
0.0376924
0.037197
0.0370354
0.0370971
0.0371633
0.0372444
0.0375776
0.0385447
0.0403411
0.0456932
0.0557218
0.0564085
0.0614199
0.056348
0.0639678
0.0746928
0.0672543
0.0619733
0.0548002
0.058489
0.0573283
0.0587081
0.0562773
0.0544047
0.0555395
0.0525166
0.0502892
0.0491738
0.0490663
0.0492312
0.049715
0.0512282
0.0549831
0.0551364
0.0567955
0.0593077
0.0568452
0.0586993
0.0542673
0.0612587
0.066581
0.0628484
0.0588665
0.0536877
0.0579343
0.0602301
0.0651239
0.0763833
0.0914526
0.0823087
0.0720824
0.0717797
0.0717053
0.0716799
0.0721193
0.0723087
0.0715263
0.0800697
0.0909088
0.0769247
0.0656463
0.0603933
0.0579366
0.052656
0.0577595
0.0627882
0.0575856
0.055664
0.0565905
0.0630406
0.0653765
0.0680088
0.0809921
0.0959869
0.080996
0.06905
0.0672075
0.0672871
0.0679542
0.0680243
0.0678497
0.069021
0.0790219
0.0929413
0.0804927
0.0699322
0.0672991
0.0635805
0.0560192
0.0548927
0.0572847
0.0513765
0.0560683
0.0616581
0.0697855
0.0707081
0.0668032
0.0726585
0.0844576
0.0811598
0.071983
0.0673472
0.0655876
0.0656701
0.0662495
0.0674447
0.0708214
0.0788465
0.0831155
0.0731878
0.0681339
0.0726333
0.0718911
0.0623357
0.0565108
0.0522164
0.0486903
0.0587452
0.0681163
0.0728426
0.0700863
0.0648784
0.0668755
0.0763226
0.0791595
0.0736098
0.0678787
0.0642872
0.0635399
0.0650016
0.0679502
0.0723658
0.077002
0.0752447
0.0674243
0.0660789
0.0714892
0.0742725
0.0691413
0.0592435
0.0485707
0.0632276
0.0737856
0.0653985
0.0678719
0.0661762
0.0619241
0.0630081
0.0712788
0.0765417
0.073317
0.0673593
0.0626905
0.0614455
0.0636554
0.0676516
0.0721851
0.0745174
0.0703062
0.0635221
0.0631421
0.0674647
0.0693241
0.0670447
0.0801265
0.0623502
0.0843911
0.106306
0.0669345
0.0641081
0.0629458
0.0591868
0.0601912
0.0676978
0.0737382
0.0717724
0.0659517
0.0607998
0.0592179
0.0618107
0.0662556
0.0706789
0.0719592
0.0669846
0.0606901
0.0602552
0.0639682
0.0653005
0.0698789
0.109268
0.0831321
0.114634
0.111344
0.0679758
0.0617721
0.0598086
0.0567457
0.0578379
0.0648356
0.0709879
0.0696353
0.0640231
0.0587322
0.0569498
0.0595853
0.0641935
0.0685604
0.0694931
0.0643466
0.0582587
0.0576785
0.060578
0.0626331
0.0701034
0.108316
0.125366
0.132504
0.105262
0.0668924
0.059772
0.0570328
0.0546655
0.055792
0.0622781
0.0683764
0.0671637
0.061613
0.0564389
0.0547656
0.0573601
0.0619152
0.066263
0.0671008
0.0618057
0.0561612
0.055612
0.057945
0.0607348
0.0684703
0.0990332
0.141648
0.139334
0.10092
0.0653245
0.0580714
0.0548487
0.0528837
0.054142
0.060031
0.0657486
0.0646606
0.0592418
0.0542487
0.0527093
0.0551564
0.0596167
0.063961
0.0646799
0.0595765
0.0544617
0.0538113
0.0559026
0.0591399
0.0667719
0.0958414
0.145921
0.144152
0.0990968
0.0636403
0.0565304
0.0531549
0.0514289
0.0527881
0.0580819
0.0632041
0.0621314
0.0569345
0.0521903
0.0507496
0.0529953
0.0572123
0.0614604
0.0622454
0.0576763
0.0530892
0.052247
0.0541943
0.0575624
0.0647321
0.0930719
0.150036
0.148738
0.0967003
0.0619594
0.0550429
0.051725
0.0502249
0.0517404
0.0564237
0.0607042
0.0594866
0.0545328
0.050186
0.048912
0.0509659
0.0549678
0.0591426
0.0600536
0.0560454
0.0519133
0.0509833
0.0528975
0.0562714
0.0633764
0.0931199
0.151901
0.151887
0.0969345
0.0611658
0.0538162
0.0506414
0.0493085
0.0507907
0.0549042
0.0584043
0.0570148
0.0523252
0.0483316
0.0471622
0.0490059
0.0526812
0.0567091
0.0578694
0.0546098
0.0509763
0.0499924
0.0517521
0.0550338
0.0624259
0.093897
0.155637
0.156183
0.0981803
0.0608025
0.0527946
0.0497436
0.0486766
0.0500073
0.0535191
0.0562526
0.0546983
0.0502423
0.0465767
0.0454999
0.0471189
0.0504192
0.0542794
0.0557366
0.0532904
0.0502117
0.0492765
0.0506898
0.0538637
0.061617
0.0940052
0.160214
0.160983
0.0982059
0.0604686
0.0519552
0.0489455
0.0482115
0.049419
0.0522052
0.0540545
0.0522432
0.0481326
0.0448873
0.0439348
0.0454169
0.0484025
0.0520628
0.0537566
0.052038
0.0495414
0.0486821
0.0498028
0.052973
0.0614516
0.0960374
0.16353
0.162415
0.0973732
0.0605808
0.0514787
0.0483237
0.0476499
0.0487962
0.0509538
0.0520856
0.0501032
0.0462549
0.0433316
0.0424594
0.04378
0.0464046
0.0498413
0.0517821
0.0508289
0.0489306
0.0480415
0.0490067
0.0522874
0.0612071
0.0956789
0.166929
0.16419
0.0971007
0.0611195
0.0512785
0.0477528
0.047085
0.0481318
0.049732
0.0502414
0.0481093
0.0445337
0.0419007
0.041088
0.042283
0.0445868
0.0477531
0.0498744
0.0495908
0.0482521
0.047434
0.0483404
0.0519137
0.0614533
0.095205
0.168303
0.166809
0.0953582
0.061343
0.0512951
0.0473028
0.0465874
0.0474034
0.0485106
0.0484114
0.0461956
0.0428705
0.0405462
0.0398062
0.0409209
0.0429702
0.0459506
0.0481471
0.0483818
0.0474707
0.0468473
0.047797
0.051823
0.0619326
0.0951782
0.169806
0.167976
0.094348
0.0611607
0.0516622
0.0472197
0.0460563
0.0466146
0.0473098
0.0467502
0.044495
0.0414121
0.0393339
0.0386217
0.0396685
0.0414814
0.0442054
0.0464268
0.0471527
0.046655
0.0462548
0.0476111
0.0519949
0.0619061
0.0943157
0.17175
0.169498
0.0947418
0.0606442
0.0521338
0.047344
0.0455532
0.0458125
0.0461125
0.0452545
0.0430064
0.0400853
0.0382137
0.0375209
0.038517
0.0401416
0.0427044
0.0448956
0.0458985
0.0458002
0.0456908
0.047647
0.052438
0.0615919
0.0943196
0.172789
0.171404
0.0942549
0.0599618
0.0527367
0.0477048
0.0451565
0.0450569
0.0449204
0.0437917
0.0415544
0.0388583
0.0371828
0.036509
0.0375018
0.0389865
0.0413691
0.0435102
0.04474
0.0450154
0.0452823
0.0479219
0.0531665
0.0611764
0.0951594
0.174148
0.172019
0.094846
0.0593249
0.0535445
0.0482167
0.0449638
0.0443316
0.0438254
0.042516
0.0403252
0.0377771
0.0362425
0.0355704
0.036546
0.0379125
0.0401595
0.0422146
0.0436088
0.0442832
0.0450259
0.0483503
0.0542267
0.0604411
0.0951592
0.175443
0.172789
0.0958675
0.0586932
0.0539268
0.0489922
0.0449929
0.0437375
0.0428517
0.0413613
0.0391943
0.036813
0.0353923
0.0347211
0.0356866
0.0369652
0.0390566
0.041062
0.0426148
0.0436687
0.0450205
0.0492484
0.0548998
0.0595659
0.0957223
0.175752
0.174089
0.0957516
0.05765
0.0535896
0.0498349
0.0452249
0.0433283
0.0419784
0.0402972
0.0381583
0.0359184
0.0345868
0.0339349
0.034901
0.0361326
0.0381349
0.0400798
0.0417559
0.0432101
0.0451876
0.0502209
0.0546411
0.0586478
0.0969141
0.176481
0.174724
0.0965186
0.05673
0.0531562
0.0512944
0.0457548
0.0431558
0.0413082
0.0394151
0.0372806
0.0351524
0.0338707
0.0332244
0.034177
0.0353704
0.0372756
0.0392055
0.0410698
0.0429811
0.0457225
0.0517355
0.0539577
0.0575485
0.0974587
0.17747
0.175511
0.0977606
0.0562855
0.0525207
0.0520659
0.0465813
0.0431086
0.0408982
0.0387134
0.0365338
0.034477
0.0332152
0.032578
0.0335073
0.0346944
0.0365476
0.0385177
0.0406251
0.0429451
0.0466509
0.052614
0.0529835
0.0566785
0.0984688
0.177837
0.176357
0.0982867
0.055648
0.0516197
0.0518761
0.047836
0.0432636
0.0406544
0.0381769
0.0358869
0.0338672
0.0326245
0.0320009
0.0329322
0.0341173
0.035981
0.0380393
0.0404047
0.0431665
0.0482266
0.0522096
0.0520071
0.0564927
0.100233
0.178402
0.176635
0.0992182
0.0553103
0.0507755
0.0512769
0.0493873
0.0438846
0.0405742
0.0379138
0.0354327
0.033365
0.0320989
0.03148
0.032401
0.0336067
0.0355175
0.03779
0.0403259
0.0437735
0.049623
0.0514468
0.0511098
0.0560086
0.101057
0.178917
0.177082
0.100676
0.0557873
0.0501404
0.0504425
0.0499123
0.045157
0.0407302
0.0377547
0.0351469
0.0329814
0.0316536
0.0310256
0.0319497
0.0332123
0.0352193
0.0376398
0.040476
0.0451012
0.0500005
0.0504153
0.0504081
0.0560708
0.102051
0.179106
0.177633
0.101371
0.0556473
0.0495483
0.0495218
0.0494849
0.0471443
0.0413126
0.0377089
0.0350255
0.0327735
0.0313212
0.0306647
0.0316262
0.0329931
0.0351417
0.0376749
0.0412155
0.0472609
0.0494584
0.0493907
0.0499509
0.0568089
0.103312
0.179386
0.177786
0.102369
0.0563929
0.0492256
0.0487188
0.0488895
0.0482904
0.0429132
0.0379257
0.0349728
0.0326856
0.0311458
0.030418
0.0314496
0.0328823
0.035089
0.037902
0.0427815
0.0483743
0.048764
0.0485892
0.049572
0.0571568
0.103879
0.1799
0.17784
0.103702
0.0575168
0.0491715
0.0481036
0.0481516
0.0479023
0.0452627
0.0389159
0.0350588
0.0326372
0.0310696
0.0302823
0.0313732
0.0328333
0.0351851
0.0388711
0.0452117
0.0479435
0.0480284
0.0479944
0.0493974
0.0577388
0.104624
0.179871
0.17737
0.104127
0.058015
0.0491165
0.0476048
0.0474111
0.0473826
0.0465508
0.0409346
0.0354367
0.032658
0.0310369
0.0302428
0.0313505
0.032892
0.0357387
0.0411045
0.0464846
0.0473615
0.0473895
0.0475771
0.0494699
0.0587679
0.105608
0.179009
0.175283
0.104178
0.0586255
0.0491567
0.0472466
0.0468112
0.0467437
0.0462742
0.0435143
0.0368041
0.032881
0.0310561
0.0302442
0.0313658
0.0331173
0.0371971
0.0435359
0.0461808
0.046709
0.0468495
0.0472656
0.049473
0.0592153
0.105459
0.176891
0.168947
0.102582
0.0592158
0.0492291
0.0469975
0.046361
0.0461228
0.0458604
0.0447722
0.0395618
0.0337576
0.0312361
0.0303573
0.0315253
0.0340216
0.0398773
0.0445415
0.0457373
0.0460741
0.0464091
0.0470433
0.0494502
0.0595257
0.103521
0.170559
0.10022
0.30977
0.437858
0.503822
0.541823
0.562288
0.570242
0.582278
0.594329
0.594027
0.582125
0.576418
0.579907
0.58322
0.584432
0.581892
0.576851
0.573749
0.571871
0.569421
0.566264
0.562924
0.558102
0.546229
0.525469
0.494881
0.449789
0.381362
0.277221
0.124526
0.100003
0.307845
0.434202
0.499788
0.532842
0.545497
0.54953
0.561898
0.58429
0.595783
0.586117
0.577893
0.57583
0.579257
0.580637
0.578117
0.572227
0.568433
0.566239
0.563568
0.560069
0.556555
0.551566
0.539788
0.517931
0.485755
0.43924
0.36997
0.267276
0.122761
0.110503
0.311615
0.429899
0.48663
0.509563
0.512982
0.515132
0.528647
0.558559
0.583589
0.582267
0.574282
0.568481
0.570374
0.571943
0.569919
0.564086
0.560135
0.557881
0.555193
0.551605
0.548038
0.542264
0.530286
0.507408
0.473884
0.426296
0.356971
0.25683
0.121144
0.120042
0.312738
0.419889
0.464426
0.475762
0.471992
0.474134
0.491276
0.526582
0.562991
0.572407
0.567862
0.561041
0.559806
0.561725
0.560093
0.554514
0.550187
0.547845
0.545115
0.541744
0.537822
0.531245
0.51893
0.495146
0.460521
0.412233
0.343638
0.246957
0.119539
0.126559
0.311929
0.405174
0.435149
0.436776
0.430225
0.433813
0.452867
0.488565
0.533403
0.559113
0.556214
0.549628
0.546694
0.54867
0.54702
0.542581
0.538137
0.535935
0.533313
0.530026
0.525847
0.518549
0.505775
0.48133
0.44595
0.397312
0.329518
0.236699
0.117788
0.132813
0.313735
0.388723
0.404402
0.401108
0.395421
0.399777
0.41712
0.450095
0.497463
0.534442
0.540874
0.534146
0.53167
0.534726
0.533842
0.529196
0.524813
0.522643
0.520092
0.516839
0.512529
0.504616
0.491168
0.466028
0.429977
0.381013
0.314448
0.225727
0.115464
0.139212
0.316825
0.371839
0.378198
0.374909
0.372413
0.375278
0.386582
0.413435
0.458106
0.502062
0.523943
0.516745
0.513914
0.518783
0.519919
0.51415
0.510333
0.507906
0.505389
0.502102
0.497541
0.488906
0.474493
0.448609
0.412027
0.363242
0.298343
0.214483
0.112821
0.146198
0.318764
0.357895
0.364141
0.365032
0.365588
0.363977
0.365736
0.381791
0.418985
0.465193
0.500985
0.498616
0.494678
0.501305
0.505031
0.499645
0.495172
0.491915
0.489009
0.485077
0.479609
0.470034
0.454286
0.428252
0.392289
0.344792
0.283054
0.204761
0.110727
0.153664
0.317229
0.353823
0.36887
0.38013
0.382661
0.372074
0.359119
0.359439
0.384148
0.427018
0.469537
0.478883
0.475113
0.482843
0.489217
0.485671
0.479566
0.475259
0.47158
0.466904
0.460705
0.450525
0.434418
0.409003
0.374048
0.328425
0.269845
0.196291
0.108922
0.161103
0.317071
0.369093
0.405833
0.432963
0.432678
0.409247
0.373163
0.351053
0.357312
0.390919
0.435802
0.457611
0.4555
0.464729
0.472953
0.471537
0.463961
0.458502
0.45383
0.448848
0.442278
0.431791
0.415593
0.390835
0.356949
0.313124
0.257463
0.188589
0.107214
0.168641
0.32506
0.415754
0.493491
0.545985
0.534189
0.489523
0.415385
0.361359
0.342608
0.36105
0.402864
0.435502
0.436691
0.445327
0.456996
0.45749
0.449496
0.441882
0.436185
0.431094
0.424264
0.413499
0.397178
0.373045
0.340351
0.29843
0.245692
0.181324
0.105596
0.175831
0.349618
0.510681
0.644329
0.683231
0.652832
0.597528
0.490616
0.393622
0.342888
0.340052
0.373339
0.410313
0.416271
0.425692
0.441232
0.44442
0.435324
0.425397
0.418936
0.413646
0.406579
0.395569
0.37919
0.355685
0.324281
0.28438
0.234618
0.174664
0.10406
0.184513
0.402774
0.659999
0.764333
0.76274
0.718282
0.668118
0.576034
0.441983
0.357413
0.329372
0.348991
0.384513
0.395748
0.406018
0.425538
0.432297
0.421719
0.409796
0.4023
0.396654
0.389339
0.3781
0.36174
0.338881
0.308822
0.270982
0.224219
0.168417
0.102608
0.195686
0.49984
0.796385
0.830386
0.789704
0.729518
0.698978
0.628379
0.491562
0.379319
0.327733
0.330235
0.360906
0.375863
0.386928
0.4107
0.420931
0.409417
0.395228
0.386445
0.380268
0.372693
0.3612
0.344948
0.322754
0.294035
0.258243
0.214434
0.162524
0.101207
0.210284
0.633481
0.893202
0.866492
0.791772
0.718774
0.696505
0.656602
0.525045
0.398646
0.32987
0.317835
0.341512
0.357034
0.369324
0.393981
0.41035
0.398998
0.381559
0.371371
0.36463
0.356719
0.344954
0.328876
0.307342
0.279909
0.246093
0.205139
0.156934
0.0998052
0.227631
0.771433
0.966453
0.892972
0.791619
0.710046
0.673824
0.666023
0.540941
0.410629
0.331168
0.310679
0.326827
0.340154
0.354
0.377558
0.402138
0.391169
0.369579
0.357496
0.349823
0.341445
0.329419
0.313523
0.292628
0.266399
0.234472
0.196258
0.151653
0.0983607
0.247722
0.892268
1.03201
0.922667
0.794603
0.700624
0.644574
0.644113
0.538714
0.40978
0.329634
0.306024
0.316825
0.326516
0.341265
0.363194
0.395701
0.387487
0.360151
0.344791
0.335835
0.326802
0.314645
0.298904
0.278607
0.253552
0.223461
0.187899
0.146662
0.0969089
0.270598
1.00018
1.09943
0.953879
0.801021
0.692268
0.628054
0.616241
0.525733
0.397851
0.325497
0.304049
0.310425
0.316268
0.331461
0.352226
0.382849
0.390638
0.355208
0.333615
0.322634
0.312822
0.300586
0.284974
0.265275
0.241456
0.21322
0.180189
0.142022
0.0955251
0.294493
1.10244
1.17035
0.986611
0.809899
0.691421
0.623739
0.596903
0.518112
0.393137
0.325129
0.305742
0.305615
0.309952
0.324837
0.344526
0.370842
0.395431
0.358698
0.325373
0.310633
0.299478
0.287181
0.271742
0.252708
0.230204
0.203797
0.173151
0.137858
0.0942286
0.320489
1.20611
1.24045
1.0253
0.829342
0.701547
0.627782
0.589834
0.508836
0.401271
0.334348
0.312119
0.30534
0.308302
0.321631
0.340152
0.360745
0.386029
0.374958
0.32346
0.299986
0.287073
0.274464
0.259308
0.241002
0.219758
0.195067
0.166638
0.134075
0.0929817
0.354403
1.30807
1.30595
1.07051
0.860016
0.721679
0.641723
0.592908
0.512485
0.412067
0.349501
0.323831
0.31096
0.310338
0.3212
0.337861
0.354857
0.374885
0.38711
0.333113
0.293239
0.276267
0.262379
0.247714
0.230243
0.210143
0.187049
0.160606
0.130561
0.0917794
0.392483
1.40901
1.36882
1.12515
0.903496
0.753222
0.665165
0.606197
0.528351
0.424998
0.365278
0.33722
0.320575
0.315396
0.32289
0.336244
0.349974
0.363416
0.378
0.357076
0.294194
0.267253
0.251791
0.236723
0.220365
0.201436
0.179868
0.155129
0.12732
0.0906676
0.44072
1.46
1.41275
1.19251
0.965277
0.797481
0.69897
0.630229
0.546721
0.440023
0.377251
0.347792
0.333641
0.32476
0.327345
0.335901
0.345715
0.354395
0.364181
0.367063
0.306336
0.262437
0.242786
0.227103
0.211455
0.193811
0.173618
0.150357
0.124438
0.0896878
0.46757
1.50291
1.45258
1.28172
1.0546
0.862428
0.744138
0.663171
0.571459
0.460316
0.388272
0.359299
0.346524
0.339183
0.336274
0.338075
0.341541
0.34653
0.350361
0.356363
0.329848
0.264586
0.236343
0.219324
0.203448
0.187131
0.168182
0.146249
0.121937
0.0888138
0.479885
1.35428
1.48193
1.40425
1.17861
0.953264
0.804842
0.709263
0.613736
0.495267
0.406355
0.372742
0.359009
0.351243
0.345754
0.342509
0.339188
0.339873
0.340768
0.342773
0.336425
0.275944
0.233212
0.213061
0.197127
0.180972
0.163345
0.142663
0.119826
0.088021
0.124789
0.278504
0.382901
0.451354
0.496322
0.526612
0.546633
0.557847
0.562675
0.565929
0.568861
0.571062
0.572923
0.576138
0.581253
0.583584
0.58197
0.578362
0.575921
0.583076
0.594883
0.590516
0.576226
0.56427
0.557
0.537549
0.500192
0.43408
0.306751
0.100847
0.123036
0.268589
0.371583
0.440869
0.487234
0.519026
0.540017
0.551268
0.556267
0.55981
0.563021
0.565408
0.56759
0.571497
0.577359
0.579598
0.577834
0.574464
0.577816
0.586758
0.594309
0.577878
0.554419
0.542035
0.538434
0.526146
0.493938
0.429359
0.304336
0.100737
0.121415
0.258112
0.358587
0.427944
0.475371
0.508457
0.530413
0.541985
0.547696
0.55137
0.554683
0.557019
0.559238
0.563283
0.568984
0.570718
0.568854
0.567658
0.574613
0.582449
0.579673
0.550247
0.52009
0.506463
0.504671
0.502233
0.479852
0.424637
0.308122
0.111175
0.1198
0.248182
0.345199
0.413859
0.461986
0.496149
0.518992
0.530962
0.537499
0.541465
0.544741
0.547007
0.549267
0.553686
0.559027
0.560392
0.558219
0.560472
0.568321
0.573639
0.556662
0.516857
0.482171
0.465355
0.463581
0.467835
0.457307
0.414262
0.309516
0.120733
0.118028
0.237856
0.331077
0.398906
0.447371
0.482286
0.505811
0.518281
0.525547
0.529801
0.532986
0.53514
0.53725
0.541763
0.545977
0.547311
0.545506
0.54912
0.55651
0.555928
0.524661
0.478523
0.444567
0.425969
0.422648
0.429302
0.427952
0.399287
0.30875
0.12713
0.115703
0.226882
0.316001
0.382626
0.431421
0.467002
0.491251
0.504401
0.512234
0.516659
0.519849
0.521943
0.524037
0.528436
0.532996
0.533404
0.530482
0.533881
0.541047
0.528242
0.487787
0.440597
0.409612
0.393409
0.389613
0.395045
0.397776
0.382982
0.310581
0.133319
0.113059
0.215623
0.299911
0.364907
0.413563
0.449708
0.474693
0.488806
0.497275
0.50194
0.505171
0.50729
0.509682
0.513467
0.519135
0.517448
0.512677
0.516871
0.524308
0.494268
0.448526
0.405114
0.38091
0.371238
0.369053
0.371153
0.373896
0.367123
0.313789
0.139848
0.110959
0.205895
0.284662
0.346513
0.393813
0.429347
0.454719
0.470164
0.479478
0.484978
0.488836
0.491428
0.494659
0.499433
0.504284
0.499979
0.49365
0.498909
0.496779
0.456924
0.410364
0.375495
0.362931
0.363144
0.365914
0.365086
0.361966
0.354692
0.315655
0.146685
0.109127
0.197339
0.271345
0.330086
0.375592
0.410156
0.43498
0.450872
0.460811
0.467004
0.471554
0.47495
0.479069
0.485682
0.488528
0.481747
0.474384
0.478962
0.463917
0.418823
0.377358
0.356381
0.360272
0.376228
0.38786
0.384861
0.371172
0.353493
0.314846
0.15422
0.107393
0.18954
0.258835
0.314666
0.3584
0.391945
0.41622
0.432251
0.442547
0.449109
0.453996
0.458378
0.463944
0.471695
0.472331
0.463425
0.455372
0.457779
0.429658
0.383883
0.353296
0.352351
0.379711
0.419907
0.445328
0.445321
0.413774
0.372792
0.316258
0.161913
0.105746
0.182171
0.246936
0.299854
0.341713
0.374122
0.397888
0.414051
0.424641
0.431472
0.436515
0.441926
0.449785
0.457881
0.456395
0.444112
0.436728
0.434539
0.396828
0.356064
0.342445
0.368239
0.428738
0.511999
0.557874
0.5692
0.510062
0.425037
0.326677
0.168966
0.104184
0.175408
0.235725
0.285682
0.325558
0.356742
0.379962
0.396187
0.40705
0.414103
0.419379
0.425617
0.435862
0.444972
0.440553
0.424463
0.416364
0.407846
0.368148
0.337894
0.347319
0.406678
0.514193
0.618967
0.673474
0.703797
0.6648
0.526606
0.354863
0.176463
0.102707
0.169075
0.225207
0.272177
0.310023
0.339927
0.362554
0.378761
0.389894
0.397172
0.402839
0.410382
0.42259
0.432884
0.424896
0.404942
0.396254
0.381719
0.345134
0.33054
0.366481
0.460311
0.597887
0.68535
0.731195
0.778782
0.781045
0.678545
0.413393
0.185315
0.10128
0.163102
0.215317
0.25934
0.295168
0.323783
0.345797
0.3619
0.373299
0.380836
0.387066
0.396053
0.41067
0.42139
0.409286
0.386054
0.376449
0.358484
0.328443
0.33209
0.391867
0.512635
0.646901
0.708868
0.737365
0.803162
0.846405
0.813914
0.516898
0.196955
0.0998531
0.157427
0.205927
0.2471
0.280977
0.308345
0.329741
0.345692
0.357345
0.365231
0.372068
0.382671
0.400519
0.410446
0.392126
0.368698
0.357238
0.339775
0.318188
0.336437
0.413419
0.544569
0.673185
0.70227
0.727294
0.804891
0.883894
0.911202
0.653818
0.211977
0.0983828
0.152061
0.196935
0.235383
0.267396
0.293588
0.314388
0.330183
0.342048
0.350464
0.358323
0.370958
0.392811
0.402015
0.375668
0.353426
0.340441
0.325719
0.312111
0.33853
0.425756
0.561191
0.681021
0.679838
0.720796
0.805767
0.913625
0.986549
0.791216
0.229711
0.0969054
0.146985
0.188448
0.224257
0.254467
0.279511
0.299757
0.315395
0.327388
0.336476
0.345716
0.36176
0.38893
0.393461
0.361604
0.340567
0.326956
0.316496
0.307632
0.337119
0.423523
0.556773
0.65381
0.652352
0.712548
0.810339
0.945563
1.05534
0.911511
0.249913
0.0955039
0.142245
0.180629
0.213902
0.242294
0.266134
0.285817
0.301318
0.313415
0.323323
0.334644
0.357118
0.391701
0.380088
0.350584
0.330541
0.316649
0.310854
0.305265
0.331335
0.409813
0.542106
0.624444
0.637038
0.704973
0.817704
0.978329
1.12631
1.02005
0.273012
0.0942024
0.137964
0.173546
0.204426
0.230977
0.25353
0.272565
0.287905
0.300133
0.311362
0.326719
0.360777
0.393263
0.367936
0.342945
0.323701
0.310035
0.306607
0.306928
0.329083
0.404447
0.532989
0.606932
0.633763
0.704538
0.827215
1.01273
1.19996
1.12386
0.297074
0.0929613
0.134122
0.167034
0.195685
0.220494
0.241796
0.260091
0.275169
0.287826
0.300864
0.325303
0.376447
0.382752
0.358161
0.33848
0.320394
0.307884
0.306133
0.313838
0.338003
0.41168
0.523358
0.601505
0.638988
0.715347
0.847628
1.05287
1.27209
1.22941
0.323091
0.0917502
0.130625
0.160983
0.18762
0.210841
0.231014
0.248454
0.263032
0.277031
0.294422
0.335233
0.384662
0.371549
0.35234
0.3359
0.319812
0.309621
0.311559
0.325337
0.353824
0.421907
0.527937
0.605707
0.653892
0.736651
0.880238
1.09989
1.33882
1.33233
0.358085
0.090609
0.1274
0.155451
0.180318
0.202029
0.22108
0.237417
0.252473
0.26815
0.295905
0.358393
0.374533
0.360118
0.347491
0.333991
0.321402
0.314753
0.321545
0.338361
0.369672
0.43513
0.54398
0.619618
0.677947
0.769034
0.926164
1.1564
1.40386
1.4338
0.394955
0.0896078
0.124503
0.15058
0.173921
0.194236
0.211996
0.227759
0.243461
0.263598
0.308445
0.364988
0.360869
0.351708
0.343211
0.333859
0.325942
0.32487
0.334604
0.349231
0.38182
0.451061
0.561207
0.642812
0.712142
0.81413
0.989225
1.2264
1.44973
1.48659
0.44075
0.088729
0.121969
0.146408
0.16839
0.187415
0.203898
0.219893
0.237079
0.266273
0.331492
0.353659
0.347692
0.344201
0.339254
0.336597
0.335713
0.339506
0.347663
0.361261
0.39329
0.472217
0.585132
0.675245
0.757736
0.881235
1.08067
1.317
1.48921
1.52724
0.466898
0.0879339
0.11978
0.142799
0.163508
0.18118
0.197524
0.213606
0.234238
0.278271
0.335379
0.340287
0.338469
0.337806
0.337516
0.34182
0.345314
0.351015
0.359744
0.375562
0.413057
0.508322
0.627693
0.722157
0.819958
0.974755
1.20843
1.44067
1.51507
1.37645
0.479395
0.172934
0.172703
0.171476
0.170502
0.169555
0.168615
0.167695
0.166671
0.165593
0.164364
0.163056
0.161605
0.160136
0.158498
0.156849
0.155017
0.153166
0.151221
0.149186
0.147048
0.144904
0.14276
0.140676
0.138654
0.136716
0.134867
0.133125
0.131491
0.129964
0.128554
0.12726
0.126059
0.124936
0.123855
0.122788
0.121707
0.120641
0.119546
0.118377
0.117189
0.116048
0.11527
0.1145
0.113634
0.113037
0.112768
0.112754
0.112823
0.112751
0.112621
0.112406
0.112332
0.112638
0.113448
0.11474
0.116742
0.119786
0.12398
0.128516
0.13213
0.13395
0.134678
0.135061
0.135523
0.136044
0.13633
0.136052
0.135695
0.135283
0.134945
0.13466
0.134239
0.13395
0.133679
0.132963
0.132056
0.131402
0.131002
0.130758
0.130655
0.130449
0.129968
0.129202
0.128209
0.127058
0.125821
0.124579
0.12345
0.122592
0.122148
0.12206
0.122111
0.122222
0.12237
0.12255
0.122753
0.122946
0.123033
0.122944
0.122611
0.122008
0.121309
0.120439
0.119116
0.117064
0.114103
0.110287
0.105584
0.0994394
0.0923036
0.08684
0.0839777
0.0825977
0.0820918
0.0820442
0.0821874
0.0825291
0.0830077
0.0834646
0.0839076
0.0844204
0.085032
0.0857157
0.0864595
0.0872331
0.248023
0.249335
0.248928
0.248999
0.249022
0.249104
0.249553
0.249998
0.250759
0.251777
0.252829
0.254135
0.255389
0.256989
0.258301
0.260288
0.261734
0.26321
0.264714
0.264945
0.265545
0.265261
0.265699
0.266686
0.268754
0.271825
0.275776
0.280466
0.285814
0.29187
0.298858
0.30691
0.316437
0.326245
0.336222
0.3454
0.353265
0.360396
0.366578
0.371093
0.373022
0.37277
0.371552
0.368634
0.364597
0.359363
0.352748
0.344253
0.333757
0.322204
0.309686
0.29808
0.289384
0.28465
0.284578
0.284536
0.281063
0.275748
0.2714
0.267688
0.265778
0.264792
0.264493
0.265149
0.267126
0.27009
0.273109
0.276062
0.279004
0.282413
0.285754
0.288685
0.290873
0.2922
0.292992
0.293026
0.291856
0.289392
0.285946
0.282094
0.278391
0.274733
0.271046
0.267364
0.263729
0.260177
0.256735
0.25345
0.250288
0.247032
0.243763
0.240656
0.237553
0.23426
0.230602
0.226442
0.221744
0.216673
0.211372
0.206081
0.200935
0.195635
0.190347
0.185331
0.180498
0.175825
0.171239
0.166967
0.162761
0.157403
0.146821
0.131551
0.117872
0.110966
0.10828
0.107649
0.107945
0.109127
0.110392
0.11117
0.111909
0.112996
0.114447
0.11614
0.117896
0.269716
0.272957
0.274403
0.276636
0.27886
0.2815
0.28461
0.287759
0.291381
0.295187
0.299247
0.303297
0.307272
0.311212
0.314869
0.318793
0.32243
0.326691
0.331356
0.336311
0.342321
0.34891
0.356892
0.366232
0.377644
0.391552
0.408285
0.427377
0.448105
0.470029
0.492647
0.514961
0.536818
0.558605
0.578692
0.596097
0.609831
0.62056
0.629462
0.636909
0.642546
0.645786
0.646927
0.645725
0.642588
0.637693
0.629636
0.618306
0.602174
0.581809
0.55734
0.531022
0.509769
0.49627
0.476726
0.452806
0.427063
0.400728
0.377226
0.358201
0.3427
0.33059
0.322405
0.316603
0.31383
0.312668
0.312634
0.313578
0.315332
0.317489
0.319421
0.321588
0.324259
0.326875
0.32889
0.330282
0.330956
0.330318
0.3277
0.324118
0.320363
0.316125
0.311733
0.307266
0.302854
0.298501
0.294102
0.289494
0.284661
0.279658
0.27433
0.268801
0.2631
0.257207
0.251126
0.24493
0.238747
0.232645
0.226671
0.221053
0.215948
0.211203
0.20673
0.202273
0.198152
0.194434
0.191057
0.187954
0.18564
0.183419
0.18119
0.177627
0.170219
0.152652
0.136772
0.128797
0.125909
0.126161
0.127639
0.129032
0.130412
0.132007
0.134001
0.136688
0.139624
0.277652
0.282136
0.284964
0.28883
0.292822
0.297411
0.30218
0.307134
0.312608
0.318095
0.323817
0.329532
0.335533
0.3421
0.349315
0.357911
0.367634
0.379151