/*--------------------------------*- C++ -*----------------------------------*\
| =========                 |                                                 |
| \\      /  F ield         | OpenFOAM: The Open Source CFD Toolbox           |
|  \\    /   O peration     | Version:  2112                                  |
|   \\  /    A nd           | Website:  www.openfoam.com                      |
|    \\/     M anipulation  |                                                 |
\*---------------------------------------------------------------------------*/
FoamFile
{
    version     2.0;
    format      ascii;
    arch        "LSB;label=32;scalar=64";
    class       volVectorField;
    location    "0.00555";
    object      U;
}
// * * * * * * * * * * * * * * * * * * * * * * * * * * * * * * * * * * * * * //

dimensions      [0 1 -1 0 0 0 0];

internalField   nonuniform List<vector> 
13875
(
(2204.17 109.696 1.81271e-18)
(2142.47 5.62846 -9.38735e-19)
(2170.24 -2.15981 -9.41111e-19)
(2167.91 -0.763499 0)
(2170.29 0.0326685 0)
(2169.59 -1.50127 9.36623e-19)
(2169.35 -1.36103 -9.37073e-19)
(2169.93 -0.222325 -4.6855e-19)
(2169.36 0.2784 4.68288e-19)
(2169.07 0.600509 0)
(2169.11 0.308659 -3.8854e-22)
(2169.44 0.754268 -3.88123e-22)
(2169.68 0.881732 0)
(2169.4 -0.0523533 -4.68217e-19)
(2169.47 -0.930549 4.6858e-19)
(2169.59 -1.31543 0)
(2169.95 -0.301835 9.36962e-19)
(2169.24 0.367262 -9.37709e-19)
(2169.15 0.969429 3.87933e-22)
(2169.78 1.18968 -3.85771e-22)
(2170.44 -0.182173 -9.3629e-19)
(2167.86 0.296062 9.37156e-19)
(2171.08 2.50679 -1.87809e-18)
(2143.6 -8.62042 1.91649e-18)
(2210.08 -106.667 1.76468e-18)
(2253.39 91.9328 -1.63244e-18)
(2228.46 -1.16536 1.88338e-18)
(2247.39 0.640424 8.71803e-19)
(2245.5 0.937209 -8.67189e-19)
(2248.4 -0.61213 4.16947e-22)
(2247.77 2.07133 5.20125e-22)
(2245.88 1.63748 4.15911e-22)
(2245.68 0.380093 -4.35834e-19)
(2245.14 0.17984 4.3588e-19)
(2244.94 -0.558337 2.17719e-19)
(2245.17 -0.532751 -1.63096e-19)
(2245.41 -1.17386 -5.31872e-20)
(2247.82 -1.12455 0)
(2247.86 0.12194 -4.34963e-19)
(2247.58 1.05243 4.33436e-19)
(2245.58 1.4264 4.36022e-19)
(2245.55 0.582034 -4.35283e-19)
(2245.19 -0.211823 5.1849e-22)
(2245.66 -1.61347 -5.18709e-22)
(2247.83 -1.98183 5.19813e-22)
(2248.4 0.740544 -8.71475e-19)
(2245.59 -0.689867 2.5998e-18)
(2247.27 -1.5678 -1.74251e-18)
(2228.82 3.68189 5.42973e-22)
(2256.37 -97.2873 -1.71439e-18)
(2252.4 78.1226 0)
(2236.33 -18.235 0)
(2249.48 4.4199 0)
(2250.58 -1.87067 0)
(2253.48 -2.66925 -1.63915e-18)
(2253.35 1.47472 1.64221e-18)
(2253.43 2.0573 1.72037e-18)
(2253.98 0.582837 -2.58043e-18)
(2253.69 0.385173 8.61262e-19)
(2253.08 0.433493 4.30875e-22)
(2253.02 -0.0410306 -4.30908e-19)
(2253.06 -2.53938 4.30561e-19)
(2254.14 -2.57321 0)
(2253.97 0.0569721 0)
(2254.06 2.36057 4.08158e-22)
(2253.17 1.97976 0)
(2254.14 0.173151 8.3809e-22)
(2253.2 -0.263034 4.30588e-19)
(2253.09 -2.45703 -4.30586e-19)
(2253.52 -1.754 0)
(2253.71 2.32841 0)
(2250.93 1.3132 0)
(2250.69 -4.76135 0)
(2237.93 13.8191 0)
(2257.23 -74.4709 0)
(2247.86 51.3606 0)
(2235.04 -28.6704 1.81427e-18)
(2249.27 7.20945 -3.41701e-18)
(2251.54 -4.74725 3.46605e-18)
(2253.26 -3.19392 -1.63455e-18)
(2253.24 1.20148 0)
(2253.84 1.29868 -8.41976e-22)
(2254.57 0.0318118 0)
(2254.04 0.445368 0)
(2253.8 0.282733 0)
(2254.25 -0.0464732 0)
(2254.1 -2.40099 -8.44141e-22)
(2254.11 -2.52199 -5.07256e-20)
(2253.95 0.0374802 5.0726e-20)
(2254.02 2.26604 0)
(2254.25 1.76954 0)
(2254.78 0.244163 7.99445e-22)
(2254.14 0.44478 -8.54069e-19)
(2253.8 -1.67839 8.57681e-19)
(2253.4 -1.48687 -1.62655e-18)
(2253.55 2.71464 1.62364e-18)
(2252 4.31414 1.7409e-18)
(2249.74 -8.84064 -1.72066e-18)
(2235.79 31.2747 0)
(2251.93 -58.3042 0)
(2244.88 39.2864 1.74899e-18)
(2235.44 -47.8483 0)
(2248.74 10.4993 0)
(2250.29 -7.67506 0)
(2253.47 -4.41052 0)
(2253.3 0.56814 1.67753e-21)
(2253.66 0.772255 1.68737e-21)
(2254.44 -0.173837 4.31789e-19)
(2253.96 0.486165 -4.09792e-19)
(2253.7 0.229743 2.00697e-19)
(2254.27 -0.0854009 -2.13656e-19)
(2254.14 -2.10069 0)
(2254.1 -2.38449 0)
(2253.88 -0.0339467 -1.66544e-21)
(2254.08 2.05503 0)
(2254.29 1.34827 -1.68505e-21)
(2254.74 0.263643 8.05191e-19)
(2253.96 0.752653 -8.45911e-19)
(2253.49 -1.16904 1.72022e-18)
(2253.51 -0.8511 -1.70344e-18)
(2253.59 3.71465 1.65353e-21)
(2250.7 6.43793 0)
(2250.02 -11.5113 0)
(2237.28 42.7569 0)
(2250.53 -35.5074 0)
(2241.5 6.76176 0)
(2231.54 -63.5909 9.1245e-19)
(2247.2 12.3304 -8.47533e-19)
(2250.83 -11.2291 0)
(2252.48 -5.14161 8.59814e-19)
(2252.85 -0.104106 -4.37262e-19)
(2253.7 0.0296816 -3.07198e-21)
(2254.37 -0.631566 -2.17858e-19)
(2253.82 0.528825 -4.29908e-19)
(2253.68 0.0400487 1.60892e-19)
(2254.28 -0.208472 1.63747e-21)
(2254.04 -1.89604 2.67618e-19)
(2253.95 -2.28032 -2.14053e-19)
(2253.75 -0.0682844 3.3751e-21)
(2253.91 1.85874 -4.28597e-19)
(2254.19 1.17554 4.32685e-19)
(2254.67 0.371758 1.63288e-21)
(2254.03 1.35728 -1.68002e-21)
(2253.69 -0.284332 -1.68084e-21)
(2253.03 -0.384044 -8.66513e-19)
(2252.76 4.07308 8.46568e-19)
(2251.45 10.6589 0)
(2247.37 -15.1681 0)
(2232.43 65.2724 -1.93312e-18)
(2246.01 -18.9045 -1.26357e-19)
(2254.03 2.90704 -4.95257e-20)
(2227.49 -79.3123 6.02427e-20)
(2243.04 12.3149 0)
(2248.46 -15.6287 -2.69197e-23)
(2252.13 -7.0369 -2.62467e-23)
(2252.45 -1.36758 0)
(2253.34 -0.826422 0)
(2253.98 -0.754491 -8.6303e-19)
(2253.5 0.678525 8.45519e-19)
(2253.48 -0.0869663 0)
(2254.16 -0.278852 1.68522e-18)
(2254.04 -1.49002 4.53619e-21)
(2253.85 -1.93835 -1.71889e-18)
(2253.58 -0.184203 -1.69972e-21)
(2253.87 1.40702 0)
(2254.14 0.748457 3.43217e-18)
(2254.41 0.447726 1.78264e-21)
(2253.61 1.64823 -6.90636e-18)
(2253.04 0.315437 3.44803e-18)
(2252.67 0.905402 2.65128e-23)
(2252.25 5.998 0)
(2248.53 12.9334 3.52646e-18)
(2244.16 -12.5197 -3.30853e-18)
(2228.9 72.8799 3.81553e-18)
(2247.12 2.86801 -3.18282e-18)
(2218.37 -22.8317 -3.16859e-19)
(2214.7 -87.4572 -7.49617e-18)
(2235.67 3.57273 8.70604e-22)
(2246.07 -22.45 2.61139e-23)
(2248.79 -9.22416 -8.09992e-22)
(2251.22 -3.12924 0)
(2252.86 -1.99368 -3.44391e-18)
(2253.54 -1.25218 3.45329e-18)
(2253.16 0.407307 0)
(2253.28 -0.485582 -8.3035e-22)
(2253.9 -0.552081 -8.19369e-22)
(2253.73 -1.2747 0)
(2253.48 -1.77337 0)
(2253.22 -0.141314 -1.64e-21)
(2253.47 1.23693 -8.35283e-22)
(2253.83 0.676686 2.58898e-23)
(2254.11 0.848703 -8.57266e-22)
(2253.35 2.41743 -2.6252e-23)
(2252.81 1.7304 -1.72951e-18)
(2251.48 2.45367 -1.6264e-20)
(2249.3 7.94822 1.69159e-18)
(2246.4 19.3634 8.85184e-22)
(2236.73 -4.76352 3.45881e-18)
(2216.53 81.5348 -3.53804e-18)
(2222.26 18.1527 2.50377e-23)
(2113.27 -37.8481 9.42642e-19)
(2168.59 -98.587 0)
(2217.1 -20.11 -8.31511e-22)
(2234.94 -32.3176 -8.65926e-19)
(2245.75 -17.6621 1.71349e-18)
(2248.73 -7.11728 -1.73224e-18)
(2251.33 -3.96885 9.09117e-21)
(2252.44 -1.91047 8.61892e-19)
(2252.19 0.383825 0)
(2252.62 -0.576081 -8.40239e-19)
(2253.24 -0.51187 8.42915e-19)
(2253.21 -0.584736 0)
(2252.89 -1.26722 0)
(2252.58 -0.458182 2.08466e-21)
(2252.85 0.469142 8.26892e-22)
(2253.12 0.23444 8.39554e-19)
(2253.24 1.09286 -8.44992e-19)
(2252.26 3.1272 0)
(2251.09 3.24658 8.60593e-19)
(2249.23 5.8872 -1.72755e-18)
(2246.1 14.8368 8.46548e-19)
(2236.14 28.8395 -8.40983e-22)
(2218.95 16.6632 0)
(2171.25 93.9687 0)
(2117.07 35.3448 0)
(1873.56 -142.214 -6.57101e-17)
(2125.73 -161.399 8.4238e-17)
(2198.87 -54.7852 0)
(2229.24 -54.2274 -2.99139e-17)
(2239.76 -22.252 3.08181e-17)
(2246.45 -11.6919 0)
(2249.15 -7.4441 -2.94779e-20)
(2250.75 -3.06372 -1.46518e-17)
(2250.93 -0.859607 1.43951e-17)
(2251.4 -1.54679 -2.89485e-20)
(2251.93 -1.11118 0)
(2251.93 -0.551294 -3.6888e-18)
(2251.61 -0.94364 5.58794e-18)
(2251.28 -0.337099 -1.89193e-18)
(2251.46 0.53501 -2.90904e-20)
(2251.68 0.709874 0)
(2251.66 2.12007 0)
(2250.63 4.94793 -2.95126e-17)
(2249.19 7.17027 2.91513e-17)
(2246.64 10.4362 -3.05807e-17)
(2240.59 20.496 2.92802e-17)
(2229.54 52.7653 3.22069e-17)
(2199.99 52.6695 -2.92307e-17)
(2128.74 162.137 -8.33811e-17)
(1884.7 138.428 -1.25735e-17)
(1652.84 -215.45 -9.08588e-17)
(2011.1 -307.381 1.37666e-16)
(2159.38 -104.487 0)
(2210.66 -64.8924 6.83744e-17)
(2232.51 -29.931 -7.11314e-17)
(2241.46 -15.7511 -3.40697e-17)
(2244.63 -6.99257 3.37226e-17)
(2247.15 -2.6159 -3.27961e-17)
(2247.87 -0.861412 3.30479e-17)
(2248.65 -1.17826 3.23134e-20)
(2249.36 -0.444463 0)
(2249.42 0.373149 -2.1096e-18)
(2249.12 -0.273959 2.1673e-18)
(2248.72 -0.733727 3.28589e-20)
(2248.77 -0.590881 3.26178e-20)
(2248.75 -0.323522 3.3095e-20)
(2248.62 1.11018 0)
(2247.51 4.59196 0)
(2244.65 7.24863 -6.77187e-17)
(2241.97 14.5271 6.8279e-17)
(2233.45 26.4048 -7.16361e-17)
(2211.84 58.9488 1.47009e-16)
(2165.82 98.5478 -7.00424e-17)
(2016.33 298.385 -3.87213e-20)
(1697.72 205.977 8.75637e-20)
(1281.13 -592.633 -1.08985e-16)
(1742.08 -591.977 1.18804e-16)
(2045.85 -181.062 2.17017e-16)
(2173.39 -107.341 -9.35019e-17)
(2208.23 -37.1022 0)
(2228.67 -19.8718 7.43828e-17)
(2237.17 -12.2092 -7.4971e-17)
(2240.37 -6.41206 0)
(2241.65 -4.17247 3.53756e-20)
(2242.82 -3.59203 0)
(2243.8 -1.64686 0)
(2243.9 -0.0679208 0)
(2243.74 0.0993784 4.67339e-18)
(2243.31 -0.132687 -4.63318e-18)
(2243.18 0.425722 -3.73603e-20)
(2242.72 1.42091 -3.56144e-20)
(2242.23 3.38428 0)
(2240.77 7.36618 0)
(2236.83 13.9056 0)
(2228.5 18.8881 -7.86433e-17)
(2211.43 36.7796 1.56678e-16)
(2176.46 101.734 -7.23439e-17)
(2054.75 163.256 -1.33442e-16)
(1750.36 593.238 1.00365e-16)
(1285.52 544.114 -5.99372e-20)
(1301.34 -611.153 1.60803e-16)
(1111.94 -1084.94 0)
(1698.41 -455.107 0)
(1923.44 -127.592 -1.08833e-16)
(2146.31 -81.5784 1.09748e-16)
(2198.73 -42.0822 0)
(2212.67 -12.2916 1.13729e-20)
(2221.37 -5.02929 4.05407e-17)
(2225.13 -1.73833 -4.1011e-17)
(2227.86 -0.713472 0)
(2229.78 0.765708 -1.00483e-17)
(2230.2 1.38252 1.01479e-17)
(2230.33 0.941801 -5.10198e-18)
(2229.83 -0.410472 5.10238e-18)
(2229.2 -1.40037 3.85433e-20)
(2227.63 -1.68314 -4.07467e-17)
(2225.24 -0.384276 8.10243e-17)
(2221.66 4.57335 9.91132e-19)
(2210.43 11.7495 -4.04354e-17)
(2196.43 42.1868 -9.11426e-17)
(2133.25 70.474 8.44594e-17)
(1910.11 107.103 8.30664e-20)
(1754.97 446.584 2.62367e-20)
(1103.65 1071.83 1.67268e-16)
(1319.39 612.495 7.13637e-18)
(1358.65 -629.779 0)
(1141.87 -1058 0)
(1287.67 -752.38 0)
(1208.94 -828.675 0)
(1956.27 -260.743 0)
(2039.42 -61.8309 1.03159e-16)
(2148.59 -48.7553 -1.05171e-16)
(2166.24 -30.9794 1.20005e-19)
(2175.53 -20.956 -1.03799e-20)
(2182.74 -14.524 2.28577e-17)
(2186.94 -6.89257 -2.31046e-17)
(2188.19 -2.12505 -2.32629e-19)
(2188.58 0.515712 -7.15374e-19)
(2188.02 2.64369 8.13616e-19)
(2186.69 6.20306 -2.29535e-17)
(2182.96 11.6937 2.27214e-17)
(2175.76 19.7845 1.03063e-19)
(2165.84 31.984 0)
(2145.32 58.0821 0)
(2026.04 87.6138 0)
(1912.32 324.738 -2.11499e-16)
(1180.68 822.775 -5.96407e-17)
(1295.75 710.113 1.63194e-16)
(1135.32 1021.81 2.05865e-20)
(1369.24 619.126 2.08446e-20)
(1435.95 -620.817 0)
(1269.31 -926.644 3.97764e-20)
(1319.14 -777.898 0)
(1226.94 -846.863 -1.64953e-16)
(1311.98 -782.804 3.14867e-16)
(1609.14 -566.365 -2.06497e-16)
(1916.06 -114.343 0)
(1939.24 -10.6078 -1.02619e-19)
(1969.81 17.0032 0)
(2009.49 18.4675 0)
(2027.15 12.1564 -1.45909e-17)
(2033.73 5.87956 1.48985e-17)
(2035.23 2.94944 1.46971e-17)
(2034.36 -1.24916 -1.47922e-17)
(2030.12 -7.50243 0)
(2015.4 -14.4865 -6.1479e-17)
(1979.06 -18.3907 6.16437e-17)
(1935.13 8.20188 7.18985e-17)
(1920.36 115.148 -6.19095e-17)
(1622.55 561.915 0)
(1294.44 804.002 0)
(1207.48 842.978 -1.66469e-19)
(1328.82 773.771 -1.70338e-16)
(1267.24 922.302 3.66186e-16)
(1425.18 618.881 -1.6959e-16)
(1517.33 -627.421 -1.70208e-16)
(1389.55 -841.835 1.8652e-16)
(1377.77 -743.725 0)
(1271.34 -797.24 -1.9438e-16)
(1295.91 -757.672 -7.52451e-18)
(1271.39 -736.227 2.81667e-16)
(1223.8 -582.214 -2.01317e-16)
(1211.83 -484.921 1.22893e-16)
(1320.2 -349.203 0)
(1471.44 -181.781 0)
(1456.2 -93.3184 -4.38539e-20)
(1455.13 -36.1628 2.99794e-19)
(1448.26 -6.46804 0)
(1450.58 26.4688 0)
(1457.1 77.1535 6.30643e-17)
(1474.19 157.309 -5.96354e-17)
(1406.13 320.011 -1.22265e-16)
(1203.89 512.418 2.37505e-16)
(1200.57 568.514 1.75792e-17)
(1255.9 737.733 -9.00459e-17)
(1278.85 767.092 0)
(1248.36 802.891 0)
(1376.56 741.918 -1.75855e-16)
(1354 874.139 2.04314e-16)
(1501.29 639.254 -4.58261e-20)
(1652.75 -606.016 1.58231e-16)
(1549.81 -748.799 -9.81349e-20)
(1523.39 -675.44 9.60529e-17)
(1466.23 -688.825 -8.50227e-17)
(1383.68 -645.512 -4.65886e-20)
(1302.27 -572.738 8.99908e-20)
(1165 -421.361 1.19375e-16)
(789.15 -215.434 -1.84997e-16)
(477.158 -73.1479 6.39717e-17)
(416.38 -54.9226 0)
(300.864 -2.77344 -3.36727e-17)
(247.885 -4.60759 3.35503e-17)
(220.136 3.53973 0)
(230.004 -0.942993 5.97294e-20)
(279.041 5.44124 -3.34562e-17)
(403.585 31.1528 3.39551e-17)
(500.665 87.4766 0)
(718.109 158.611 -1.20303e-16)
(1123.55 404.542 1.19061e-16)
(1284.86 559.922 9.14294e-17)
(1357.73 634.567 -1.94788e-16)
(1441.28 704.324 1.03692e-16)
(1526.23 713.723 0)
(1540.7 786.262 1.68798e-16)
(1644.67 624.09 -3.16372e-18)
(1807.85 -542.91 -3.48719e-18)
(1749.05 -562.468 8.14909e-17)
(1677.97 -493.143 -3.79092e-17)
(1503.64 -361.653 -5.7468e-17)
(1417.17 -296.264 7.39897e-17)
(1340.13 -219.673 -5.25364e-17)
(1221.83 -160.201 5.48119e-17)
(821.324 -76.618 -6.20095e-17)
(588.208 -54.868 3.77767e-20)
(548.225 -66.8908 3.3287e-17)
(477.749 -42.3794 1.64711e-17)
(449.608 -29.7483 -1.69836e-19)
(440.829 5.52169 -1.66008e-17)
(444.803 33.7545 -6.48616e-20)
(471.462 64.4397 -7.90421e-20)
(548.106 68.6508 -2.09529e-18)
(625.404 71.7655 -1.17177e-20)
(803.045 74.9354 5.70643e-18)
(1197.34 148.223 -3.60323e-18)
(1333.68 211.893 0)
(1406.57 315.313 1.12099e-17)
(1508.39 386.162 -3.46736e-17)
(1688.74 526.932 4.33274e-17)
(1739.99 598.919 -5.69037e-17)
(1803.85 563.096 5.38278e-17)
(1978.91 -504.493 -8.7828e-20)
(1931.02 -347.929 -1.06921e-19)
(1887.5 -239.396 1.26943e-19)
(1715.52 -142.335 -5.8054e-21)
(1468.95 22.4988 -1.86319e-19)
(1369.84 22.4292 -1.9736e-19)
(1338.02 -63.1896 -7.43096e-21)
(1160.64 -96.731 0)
(932.173 -121.78 0)
(856.832 -112.781 6.56665e-17)
(804.223 -70.9553 -6.6208e-17)
(766.11 -36.1638 -9.02598e-21)
(750.468 5.18555 8.99657e-21)
(759.003 40.5585 -8.51961e-18)
(796.89 89.0797 8.30949e-18)
(861.981 122.406 0)
(922.33 148.339 0)
(1108.52 124.144 -5.96418e-17)
(1318.16 86.324 5.52631e-17)
(1355.34 -20.2463 -1.87732e-19)
(1437.7 -48.33 0)
(1715.7 126.838 0)
(1883.18 224.469 -1.31207e-19)
(1920.91 340.667 -1.12742e-19)
(1977.49 518.084 1.24879e-16)
(1572.95 -139.26 -1.89397e-16)
(1742.82 -85.3482 -2.51647e-16)
(1861.44 139.218 1.2e-16)
(1758.99 233.532 0)
(1565.38 250.485 2.11305e-19)
(1493.12 139.399 1.06907e-16)
(1497.43 13.6751 -2.09316e-16)
(1395.32 -41.4984 1.08184e-16)
(1180.42 -83.6644 -1.21882e-16)
(1039.65 -86.7044 1.2527e-16)
(958.282 -51.639 3.27774e-17)
(906.687 -22.4897 -4.0794e-17)
(889.778 5.96449 -8.22859e-18)
(901.567 30.8985 1.66495e-17)
(956.517 67.6554 0)
(1047.08 97.5748 0)
(1174.31 106.543 1.18629e-16)
(1374.78 60.8353 -2.23391e-16)
(1495.58 9.56644 1.07802e-16)
(1492.42 -138.648 2.34375e-19)
(1555.83 -265.726 1.72463e-16)
(1754.11 -257.553 -8.53065e-17)
(1842.45 -184.787 -4.96482e-16)
(1710.34 66.8423 6.67408e-16)
(1564.16 144.386 -2.6521e-16)
(84.4336 -30.0622 1.2032e-19)
(762.693 79.889 -2.65904e-16)
(1480.13 599.103 1.53806e-16)
(1707.47 545.436 0)
(1648.33 446.643 0)
(1601.87 257.614 0)
(1600.74 111.899 0)
(1525.99 46.8466 0)
(1341.36 -2.77979 -5.22284e-17)
(1182.52 -27.1451 1.08864e-16)
(1082.51 -18.1207 -8.46426e-17)
(1027.64 -8.71002 3.20521e-17)
(1007.73 6.95404 -3.59914e-18)
(1027.29 18.9865 1.45518e-20)
(1090.57 33.6109 -5.61129e-17)
(1198.46 37.2615 5.60763e-17)
(1343.35 18.5626 0)
(1524.74 -36.2716 0)
(1610.01 -96.1322 -1.70895e-16)
(1607.72 -262.911 1.83517e-16)
(1650.84 -456.636 -1.69813e-19)
(1706.99 -545.178 6.69421e-20)
(1408.68 -663.589 -9.25755e-20)
(663.097 -92.4613 -1.20745e-19)
(53.6549 10.4338 0)
(-188.819 41.2478 -2.17051e-16)
(669.174 376.769 2.15021e-16)
(1416.84 830.213 -1.49165e-19)
(1714 744.861 1.54507e-16)
(1713.81 578.632 -1.23246e-16)
(1688.1 354.852 0)
(1671.43 212.113 -8.15859e-17)
(1604.82 143.801 7.51942e-17)
(1442.44 80.8434 -4.50997e-17)
(1288.91 33.1993 9.40943e-17)
(1194.6 16.1616 -4.84135e-17)
(1138.77 6.46435 1.83028e-19)
(1121.47 4.92172 0)
(1142.16 0.697046 2.48923e-17)
(1209.26 -6.78298 2.3456e-17)
(1312.24 -30.9464 -4.80278e-17)
(1451.22 -75.0729 -8.31366e-17)
(1608.82 -141.985 8.46837e-17)
(1682.39 -200.515 -7.02416e-17)
(1699.09 -363.177 7.98059e-17)
(1714.08 -596.233 8.13158e-20)
(1717.72 -746.927 -7.43648e-20)
(1384.96 -874.04 0)
(634.323 -383.426 9.80212e-20)
(-75.2382 -54.634 0)
(377.46 363.469 1.95745e-16)
(1039.03 770.775 -1.709e-16)
(1517.02 945.601 5.65698e-20)
(1753.16 839.674 0)
(1763.63 672.665 0)
(1740.36 471.526 -7.23806e-21)
(1709.82 336.256 0)
(1663.6 239.894 7.41274e-20)
(1524.13 155.783 0)
(1386.14 88.7173 4.18918e-17)
(1295.45 49.5319 -6.42757e-17)
(1244.13 20.3903 3.25709e-17)
(1224.52 4.11544 -1.09537e-17)
(1247.4 -15.3299 0)
(1309.55 -42.1688 0)
(1406.92 -85.6545 3.95576e-17)
(1531.32 -149.961 -1.11391e-16)
(1665.17 -239.114 7.34895e-17)
(1720.59 -329.157 -5.91488e-17)
(1754.96 -466.729 7.10268e-17)
(1771.02 -675.474 0)
(1762.43 -832.98 0)
(1526.08 -954.463 0)
(1041.59 -781.25 -1.01098e-20)
(241.328 -177.919 -2.02975e-16)
(593.959 382.073 -3.49569e-20)
(1321.26 857.178 1.39456e-16)
(1636.25 968.807 -1.06499e-16)
(1794.32 874.085 0)
(1790.04 724.944 0)
(1763.84 553.439 7.51738e-21)
(1742.05 433.283 6.40617e-17)
(1704.6 317.98 -5.80648e-17)
(1581.73 217.277 3.07645e-20)
(1459.71 135.429 3.33502e-20)
(1385 78.4914 3.50696e-20)
(1335.45 35.7235 -1.03328e-20)
(1319.63 2.92956 -1.0339e-20)
(1338.85 -31.7638 1.92873e-17)
(1397.37 -73.9123 -1.94786e-17)
(1480.38 -135.38 4.29856e-20)
(1589.29 -210.77 3.97883e-20)
(1708.78 -314.297 0)
(1751.37 -426.452 -5.28494e-17)
(1781.87 -547.446 6.34493e-17)
(1802 -722.952 0)
(1805.58 -867.884 -9.47087e-17)
(1652.55 -970.626 1.1027e-16)
(1354.6 -885.078 8.21034e-21)
(692.779 -519.969 -1.72852e-16)
(841.365 454.561 3.77969e-20)
(1470.24 870.632 0)
(1701.36 966.561 0)
(1815.54 884.052 -4.94901e-17)
(1798.58 768.782 4.63983e-17)
(1779.54 624.924 0)
(1770.58 505.096 5.84574e-17)
(1744.38 376.009 -5.34384e-17)
(1633.58 264.435 3.22793e-17)
(1528.08 172.661 -3.25389e-17)
(1459.8 102.934 1.77885e-17)
(1418.64 46.8791 -1.77719e-17)
(1402.79 1.61247 0)
(1423.35 -45.5787 -1.76131e-17)
(1474.36 -101.973 1.78157e-17)
(1549.86 -175.084 -3.52434e-20)
(1644.94 -265.075 -3.2682e-20)
(1750.07 -380.083 5.1974e-20)
(1777.8 -509.905 4.89392e-17)
(1790.64 -625.904 -5.76473e-17)
(1812.22 -772.675 -4.68048e-20)
(1823.91 -885.276 -4.38238e-20)
(1710.02 -958.674 0)
(1488.81 -851.875 -6.09249e-20)
(827.555 -447.111 3.73313e-20)
(913.414 359.019 1.47991e-22)
(1542.61 798.835 0)
(1739.7 925.845 8.70955e-23)
(1818.21 883.978 4.21991e-20)
(1801.4 796.556 -8.67102e-23)
(1793.3 666.843 -5.24593e-17)
(1797.06 557.615 4.58741e-17)
(1775.69 424.615 0)
(1675.14 307.962 -5.99939e-20)
(1584.3 210.245 -1.09342e-22)
(1530.09 125.915 -1.14483e-22)
(1491.45 58.875 6.88496e-20)
(1479.07 1.12132 0)
(1495.48 -57.9169 0)
(1542.31 -124.631 -1.13978e-22)
(1604.06 -211.152 -1.08677e-22)
(1683.9 -307.181 -2.68535e-17)
(1781.37 -423.093 7.64049e-17)
(1801.92 -558.41 -5.28665e-17)
(1804.18 -665.186 0)
(1813.87 -793.749 -4.40319e-17)
(1830.18 -881.897 4.44238e-17)
(1745.31 -933.961 8.59019e-23)
(1581.93 -799.374 5.24777e-20)
(966.223 -383.843 1.44892e-22)
(1040.57 356.968 9.61402e-18)
(1615.88 770.83 1.50559e-17)
(1770.57 892.37 9.17481e-17)
(1821.44 874.719 -4.18157e-17)
(1807.94 800.152 4.22308e-17)
(1810.44 699.978 -4.7457e-17)
(1823.86 591.424 4.30128e-17)
(1805.76 455.103 -2.54782e-17)
(1713.57 338.091 2.50707e-17)
(1637.93 234.429 1.15987e-22)
(1589.22 142.836 1.21151e-22)
(1558.75 67.1292 -1.22835e-22)
(1546.46 1.27749 7.41164e-18)
(1563.16 -66.3904 7.24653e-18)
(1601.89 -142.437 -1.49523e-17)
(1657.66 -234.413 1.15517e-22)
(1724.1 -338.645 4.98037e-17)
(1811.32 -455.281 -9.65187e-17)
(1831.2 -593.528 4.8579e-17)
(1817.79 -699.65 0)
(1820.19 -803.831 -8.37545e-23)
(1831.39 -873.499 7.78249e-23)
(1770.74 -894.826 -8.11228e-23)
(1617.95 -770.311 -1.10935e-16)
(1064.61 -347.329 1.33071e-16)
(1115.27 334.351 1.33477e-19)
(1649.07 709.798 0)
(1793.27 841.276 0)
(1823.05 857.85 3.9133e-20)
(1818.99 794.126 7.93864e-20)
(1832.53 702.194 0)
(1850.38 602.592 4.52632e-17)
(1828.21 474.312 -4.32018e-17)
(1741.94 358.858 4.51472e-20)
(1680.9 254.515 -4.81657e-20)
(1645.82 154.326 -1.3802e-17)
(1616.83 72.0136 1.37307e-17)
(1607.97 -2.73591 3.55605e-18)
(1621.81 -78.8195 -3.47164e-18)
(1657.89 -162.186 1.33571e-17)
(1700.67 -262.21 -3.85565e-17)
(1754.02 -369.5 2.51525e-17)
(1834.08 -482.714 -4.69393e-20)
(1851.28 -614.541 3.97428e-20)
(1836.11 -708.91 -4.00951e-17)
(1828.1 -799.697 1.3475e-18)
(1833.72 -860.197 -1.00787e-18)
(1799.39 -846.534 3.95698e-17)
(1651.2 -710.175 4.93843e-20)
(1086.24 -351.748 6.40342e-20)
(1119.96 318.847 1.26094e-16)
(1668.24 666.295 -9.97308e-17)
(1815.81 785.765 0)
(1829.05 831.043 -3.81285e-17)
(1823.01 775.658 1.0202e-19)
(1852.85 711.413 3.8757e-17)
(1872.89 621.658 4.20588e-17)
(1852.48 493.822 -4.05251e-17)
(1776.95 379.587 -4.75352e-20)
(1726.76 269.889 -2.47884e-17)
(1694.54 168.05 1.20107e-17)
(1672.12 81.0764 1.2602e-17)
(1662.34 1.07249 -5.36682e-20)
(1675.62 -80.255 0)
(1704.17 -167.839 0)
(1744.21 -268.973 0)
(1785.54 -380.125 4.74598e-20)
(1856.36 -491.902 9.77963e-21)
(1878.94 -622.396 -5.01028e-20)
(1855.23 -712.448 0)
(1830.43 -778.863 3.86889e-20)
(1836.02 -831.985 9.23642e-21)
(1819.75 -790.692 -4.76492e-20)
(1689.75 -662.494 -9.83504e-17)
(1148.84 -310.751 1.17853e-16)
(1127.28 302.203 6.007e-17)
(1695.15 595.689 -8.78281e-17)
(1835.31 728.058 8.0653e-17)
(1839.98 800.677 -3.93031e-17)
(1846.44 757.376 -3.75036e-17)
(1876.76 694.109 3.70002e-17)
(1894.6 612.524 1.9588e-17)
(1871.04 495.496 -1.93027e-17)
(1798.28 387.171 1.09941e-17)
(1761.46 281.251 -2.26089e-17)
(1739.93 174.374 1.74505e-17)
(1718.97 83.861 -7.38935e-18)
(1712.16 -2.16469 1.48331e-18)
(1723.28 -88.7505 -4.38161e-20)
(1750.35 -181.051 2.30034e-17)
(1779.49 -286.753 -2.32152e-17)
(1810.48 -395.872 3.97571e-20)
(1873.77 -500.005 3.85997e-17)
(1897.2 -619.093 -2.18002e-18)
(1880.24 -698.567 -3.76381e-17)
(1851.31 -767.427 0)
(1844.85 -807.335 3.92661e-17)
(1835.33 -744.151 -3.59164e-17)
(1695.38 -597.849 -9.53131e-17)
(1140.29 -293.505 -4.52474e-18)
(1178.48 291.309 -5.85988e-17)
(1713.54 535.75 4.57983e-17)
(1853.64 656.545 1.86852e-20)
(1852.57 753.941 -5.31711e-20)
(1859.2 725.111 1.89828e-20)
(1895.19 682.693 3.56903e-17)
(1913.22 607.712 -1.72939e-17)
(1887.54 495.16 -1.8544e-17)
(1827.54 390.608 4.18575e-20)
(1800.28 280.011 -4.44847e-20)
(1779.43 175.375 2.03814e-20)
(1763.71 83.9411 -2.0546e-20)
(1756.32 -4.18352 0)
(1767.31 -92.8925 5.19874e-21)
(1788.08 -185.786 -1.07867e-17)
(1817.04 -289.301 1.09247e-17)
(1838.84 -401.916 -1.96771e-17)
(1891.87 -505.611 1.05735e-18)
(1916.65 -618.083 1.83899e-17)
(1892.43 -687.232 -5.22957e-20)
(1861.84 -734.056 -3.76495e-17)
(1858.32 -757.688 3.45517e-17)
(1855.77 -656.368 0)
(1702.28 -537.45 -4.57668e-17)
(1160.6 -290.045 5.84694e-17)
(1179.57 280.37 0)
(1725.29 460.225 -3.78078e-17)
(1869.09 580.792 4.40635e-17)
(1864.13 705.931 1.73666e-20)
(1885.41 709.902 1.72594e-20)
(1921.24 666.656 -3.37577e-17)
(1931.13 590.426 3.4803e-17)
(1905.56 490.566 1.85757e-17)
(1846.26 392.833 8.16002e-19)
(1828.81 291.147 -1.99336e-17)
(1816.98 183.608 -2.15554e-20)
(1802.12 90.0145 2.42316e-20)
(1796.85 -1.46658 0)
(1804.61 -92.5697 4.35348e-20)
(1824.45 -188.718 -2.15052e-20)
(1844.36 -293.749 9.92806e-18)
(1858.67 -398.44 -9.88729e-18)
(1904.83 -492.185 -1.86684e-20)
(1934.03 -595.683 -1.95168e-20)
(1922.02 -668.405 1.68266e-20)
(1884.7 -718.188 -3.64633e-17)
(1865.12 -713.913 -5.66916e-18)
(1871.26 -588.39 3.32208e-17)
(1726 -464.232 0)
(1183.59 -290.047 5.77234e-17)
(1218.45 288.567 -1.10238e-16)
(1747.92 411.975 4.27398e-17)
(1884.39 499.529 3.22184e-17)
(1879.85 638.246 -3.9147e-17)
(1900.78 668.816 0)
(1936.4 646.67 -2.0408e-21)
(1944.54 579.651 0)
(1917.44 484.915 -2.21739e-21)
(1870.93 392.096 -2.35616e-21)
(1861.84 282.916 0)
(1848.59 178.853 0)
(1838.9 87.4708 -2.55632e-21)
(1832.65 -3.29247 0)
(1840.98 -94.1701 0)
(1855.53 -188.129 -9.70001e-18)
(1876.43 -290.147 9.72989e-18)
(1883.91 -399.924 -2.35293e-21)
(1921.02 -492.145 -1.72725e-17)
(1945.4 -588.822 1.68282e-17)
(1933.31 -646.216 0)
(1900.96 -675.788 3.5844e-17)
(1882.97 -643.328 -7.17545e-17)
(1884.29 -504.242 7.47392e-17)
(1749.71 -411.323 5.86934e-18)
(1221.02 -294.376 -5.51322e-17)
(1269.73 277.988 1.3051e-20)
(1773.4 351.385 -9.96741e-21)
(1881.9 433.228 0)
(1889.89 589.994 0)
(1919.6 642.617 0)
(1962.5 626.602 7.4381e-21)
(1959.04 552.101 0)
(1933.81 466.995 -7.90329e-21)
(1887.79 379.248 0)
(1884.2 282.704 -8.60703e-21)
(1880.17 178.563 0)
(1869.39 87.4018 -2.35516e-18)
(1865.65 -4.27812 2.33745e-18)
(1870.98 -95.4153 0)
(1885.78 -190.292 9.21486e-18)
(1897.32 -291.508 -1.83157e-17)
(1901.52 -390.312 8.95213e-18)
(1934.73 -472.731 0)
(1963.15 -563.817 1.62521e-17)
(1959.26 -630.364 -1.5436e-17)
(1915.56 -646.16 3.52845e-17)
(1895.22 -591.862 -3.12766e-17)
(1888 -427.096 0)
(1769.65 -349.082 0)
(1241.97 -283.842 0)
(1271.84 269.881 -1.27836e-20)
(1775.73 321.132 9.87404e-21)
(1868.21 351.342 0)
(1906.88 491.45 0)
(1935.79 587.014 0)
(1973.29 598.935 -7.55444e-21)
(1970.28 541.059 0)
(1944.2 460.611 8.21019e-21)
(1908.05 379.709 0)
(1915.97 275.252 -8.83983e-18)
(1906.34 175.206 8.8816e-18)
(1900.34 87.9582 -8.37392e-21)
(1894.94 -1.79588 9.23116e-21)
(1901.07 -90.9738 8.36176e-21)
(1910.59 -181.112 0)
(1928.01 -279.485 0)
(1923.03 -384.585 8.67041e-21)
(1946.34 -463.887 -1.63449e-17)
(1969.57 -547.677 1.57499e-17)
(1970.13 -598.948 0)
(1932.16 -591.853 7.82222e-21)
(1909.12 -505.491 0)
(1876.05 -360.383 0)
(1785.68 -313.803 0)
(1284.77 -265.788 0)
(1302.53 260.017 -4.94235e-17)
(1792.28 294.997 3.9701e-17)
(1876.34 281.571 0)
(1918.33 400.952 -1.68485e-20)
(1955.45 550.484 0)
(1987.48 572.729 -1.42191e-17)
(1984.04 509.419 3.08815e-17)
(1959.7 439.299 -1.57276e-17)
(1926.73 359.917 -8.31746e-18)
(1933.71 267.947 8.45671e-18)
(1932.95 172.726 4.35502e-21)
(1924.73 86.0326 1.11356e-18)
(1922.02 -3.35986 -1.07034e-18)
(1925.42 -91.4573 8.49894e-18)
(1936.84 -182.813 -8.53135e-18)
(1943.95 -276.806 0)
(1941.99 -368.375 -1.55434e-20)
(1962.33 -443.188 0)
(1988.82 -520.264 0)
(1983.62 -577.284 -1.58258e-17)
(1949.97 -553.66 1.44892e-17)
(1920.47 -412.921 0)
(1881.16 -279.228 3.71395e-17)
(1792.7 -284.365 2.5577e-18)
(1282.02 -257.71 -9.83374e-17)
(1349.11 246.246 4.9013e-17)
(1808.22 266.569 1.89399e-20)
(1885.43 218.833 3.06356e-17)
(1920.66 325.026 -2.43565e-17)
(1962.85 480.954 -1.79314e-17)
(1994.61 527.188 0)
(1992.98 492.837 7.83282e-21)
(1968.95 427.51 1.51473e-17)
(1943.22 351.569 -1.61658e-17)
(1963.25 256.648 0)
(1953.68 164.773 0)
(1950.72 82.3284 -2.5784e-20)
(1945.88 -4.45617 3.20946e-20)
(1951 -89.7831 1.67848e-20)
(1957.16 -174.878 4.09569e-18)
(1972.35 -266.88 -4.04622e-18)
(1958.54 -362.415 8.59802e-21)
(1972.96 -432.84 1.54443e-17)
(1995.67 -500.343 -3.03555e-17)
(1993.54 -531.088 1.39504e-17)
(1960.56 -484.042 -1.49533e-20)
(1923.01 -323.979 0)
(1890.65 -229.233 1.70249e-20)
(1813.17 -257.596 3.93819e-17)
(1327.84 -236.672 -9.73402e-17)
(1370.33 217.079 -4.78937e-17)
(1827.8 244.767 -3.68602e-17)
(1890.63 175.705 3.47847e-17)
(1896.67 229.749 1.44078e-17)
(1977.68 420.844 -1.84564e-17)
(2004.56 488.909 0)
(2005.46 457.739 3.78961e-21)
(1985.62 405.562 -1.09273e-20)
(1965.88 334.344 7.77504e-18)
(1977.06 249.268 -1.58024e-17)
(1976.3 165.247 7.88122e-18)
(1970.16 82.9712 1.97998e-18)
(1968.03 -1.92776 -1.85317e-18)
(1969.9 -85.4682 1.84045e-18)
(1979.54 -171.123 -1.97768e-18)
(1984.5 -255.056 0)
(1979.82 -340.011 1.15041e-20)
(1989.5 -407.217 -3.51733e-21)
(2010.99 -467.973 -1.54355e-17)
(2001.19 -493.527 1.36239e-17)
(1974.87 -432.333 0)
(1907.12 -246.691 0)
(1896.09 -178.043 -4.1713e-21)
(1833.44 -236.985 -3.84537e-17)
(1377.99 -212.078 -1.79734e-18)
(1396.31 189.29 -2.22232e-17)
(1836.76 226.123 1.89925e-17)
(1896.74 163.816 4.16168e-21)
(1893.46 164.41 0)
(1981.03 306.723 1.35145e-17)
(2005.58 422.545 -1.62561e-17)
(2011.81 432.44 3.53903e-21)
(1994.48 388.589 3.63721e-21)
(1977.18 323.602 1.44958e-20)
(2002.3 240.823 -1.8864e-18)
(1992.67 156.299 9.58256e-19)
(1992.07 78.0797 1.87335e-18)
(1987.12 -3.37462 -9.59853e-19)
(1991.57 -84.4216 3.82288e-18)
(1995.87 -163.435 -3.82278e-18)
(2010.03 -248.736 0)
(1992.64 -333.687 1.05223e-20)
(1997.88 -394.69 -1.50221e-17)
(2016.12 -440.724 1.38638e-17)
(2005.36 -436.45 3.48539e-21)
(1977.29 -323.005 0)
(1891.84 -164.948 0)
(1902.51 -169.003 4.14227e-21)
(1842.88 -227.721 -3.76957e-17)
(1394.99 -191.322 4.48022e-17)
(1434.4 162.753 2.23999e-20)
(1849.07 206.92 0)
(1908.32 147.827 -7.86438e-21)
(1897.74 91.7207 -1.44613e-17)
(1976.96 243.63 1.81121e-17)
(2010.47 372.991 -1.30504e-17)
(2017.5 386.527 1.55377e-17)
(2006.47 361.494 -6.93565e-18)
(1999.21 303.716 7.55192e-18)
(2014.35 227.17 -3.67979e-18)
(2010.79 152.711 3.69897e-18)
(2006.89 75.4861 -1.82216e-18)
(2005.44 -3.60898 2.07952e-18)
(2006.44 -82.6849 -2.46525e-19)
(2014.2 -161.558 3.69386e-18)
(2019.94 -235.99 -7.3959e-18)
(2013.04 -312.217 -3.87474e-18)
(2012.95 -367.024 6.92402e-18)
(2027.03 -399.385 1.37846e-20)
(2011.5 -373.67 -7.04045e-21)
(1980.7 -245.473 0)
(1898.21 -102.409 0)
(1911.32 -156.582 0)
(1848.51 -213.392 -1.84497e-17)
(1416.15 -164.488 2.17324e-17)
(1450.32 148.438 -2.66407e-21)
(1851.81 191.995 0)
(1925.65 144.704 1.00244e-20)
(1906.42 56.9573 -8.04931e-21)
(1946.54 134.539 -7.21228e-21)
(2005.54 276.264 0)
(2017.38 348.141 -6.88519e-21)
(2012.29 336.161 6.80222e-18)
(2006.31 291.524 -7.52001e-18)
(2033.08 221.326 0)
(2025.38 146.058 1.71137e-21)
(2024.97 72.8506 0)
(2020.42 -1.83494 0)
(2024.55 -77.7954 1.79481e-18)
(2027.89 -150.23 -1.80239e-18)
(2040.19 -227.768 -7.17546e-21)
(2021.75 -299.43 -1.7253e-21)
(2016.67 -343.32 7.03002e-21)
(2021.4 -358.859 -7.82324e-18)
(2012.08 -309.508 6.53124e-18)
(1956.63 -150.55 -1.77229e-17)