/*--------------------------------*- C++ -*----------------------------------*\
| =========                 |                                                 |
| \\      /  F ield         | OpenFOAM: The Open Source CFD Toolbox           |
|  \\    /   O peration     | Version:  2112                                  |
|   \\  /    A nd           | Website:  www.openfoam.com                      |
|    \\/     M anipulation  |                                                 |
\*---------------------------------------------------------------------------*/
FoamFile
{
    version     2.0;
    format      ascii;
    arch        "LSB;label=32;scalar=64";
    class       volScalarField;
    location    "0.01006";
    object      epsilon;
}
// * * * * * * * * * * * * * * * * * * * * * * * * * * * * * * * * * * * * * //

dimensions      [0 2 -3 0 0 0 0];

internalField   nonuniform List<scalar> 
13875
(
1.16003e+06
2.94626e+07
3.28254e+07
3.28404e+07
3.29126e+07
3.28569e+07
3.29156e+07
3.29365e+07
3.28797e+07
3.28871e+07
3.29286e+07
3.2912e+07
3.28764e+07
3.28449e+07
3.28607e+07
3.29102e+07
3.29483e+07
3.29133e+07
3.28936e+07
3.28607e+07
3.28998e+07
3.28303e+07
3.28056e+07
2.94821e+07
1.17777e+06
1.31389e+06
2.27473e+07
2.53566e+07
2.52371e+07
2.52861e+07
2.52279e+07
2.52469e+07
2.52673e+07
2.52312e+07
2.52309e+07
2.52488e+07
2.52478e+07
2.52122e+07
2.51942e+07
2.52005e+07
2.52501e+07
2.52461e+07
2.52364e+07
2.52253e+07
2.52289e+07
2.52699e+07
2.52197e+07
2.53285e+07
2.27503e+07
1.3423e+06
1.57304e+06
1.97063e+07
2.18309e+07
2.1624e+07
2.17026e+07
2.16419e+07
2.15784e+07
2.15703e+07
2.15362e+07
2.15332e+07
2.15376e+07
2.15417e+07
2.16077e+07
2.16028e+07
2.15971e+07
2.15474e+07
2.1532e+07
2.153e+07
2.15487e+07
2.16406e+07
2.16833e+07
2.16018e+07
2.17896e+07
1.96839e+07
1.58499e+06
1.81375e+06
1.7385e+07
1.90388e+07
1.88758e+07
1.89688e+07
1.89115e+07
1.88383e+07
1.88142e+07
1.87847e+07
1.87851e+07
1.87893e+07
1.87829e+07
1.88837e+07
1.88805e+07
1.88764e+07
1.87877e+07
1.87943e+07
1.87799e+07
1.88066e+07
1.89149e+07
1.89521e+07
1.8858e+07
1.90138e+07
1.73607e+07
1.82104e+06
2.02284e+06
1.54523e+07
1.67729e+07
1.6617e+07
1.67044e+07
1.66502e+07
1.65784e+07
1.65542e+07
1.65365e+07
1.65408e+07
1.65422e+07
1.65296e+07
1.6625e+07
1.66272e+07
1.66195e+07
1.65337e+07
1.65476e+07
1.65305e+07
1.65527e+07
1.66545e+07
1.66901e+07
1.66052e+07
1.67434e+07
1.54285e+07
2.03715e+06
2.20652e+06
1.37125e+07
1.4929e+07
1.47358e+07
1.48329e+07
1.47681e+07
1.46874e+07
1.46638e+07
1.46546e+07
1.46616e+07
1.466e+07
1.46434e+07
1.47356e+07
1.4742e+07
1.47317e+07
1.46467e+07
1.46678e+07
1.46473e+07
1.46668e+07
1.47748e+07
1.48193e+07
1.47293e+07
1.49027e+07
1.38493e+07
2.22331e+06
2.4226e+06
1.22517e+07
1.34791e+07
1.3206e+07
1.32712e+07
1.31942e+07
1.30996e+07
1.30716e+07
1.30683e+07
1.3077e+07
1.3073e+07
1.30523e+07
1.31423e+07
1.31512e+07
1.31376e+07
1.30551e+07
1.30837e+07
1.30611e+07
1.30855e+07
1.32006e+07
1.32569e+07
1.32013e+07
1.34208e+07
1.19534e+07
2.42951e+06
2.66601e+06
1.06163e+07
1.23143e+07
1.19758e+07
1.20024e+07
1.18811e+07
1.17629e+07
1.17266e+07
1.17249e+07
1.17346e+07
1.17296e+07
1.17031e+07
1.17914e+07
1.18037e+07
1.17876e+07
1.17049e+07
1.17429e+07
1.17201e+07
1.17515e+07
1.18845e+07
1.19812e+07
1.19655e+07
1.22639e+07
1.0545e+07
2.69441e+06
3.49629e+06
1.02133e+07
1.14849e+07
1.10302e+07
1.09429e+07
1.07814e+07
1.06366e+07
1.05879e+07
1.05856e+07
1.05977e+07
1.05944e+07
1.05616e+07
1.06478e+07
1.06638e+07
1.06465e+07
1.05653e+07
1.06084e+07
1.05859e+07
1.06253e+07
1.07806e+07
1.09226e+07
1.10213e+07
1.14744e+07
1.03375e+07
3.57391e+06
6.83521e+06
1.22207e+07
1.11986e+07
1.04296e+07
1.01685e+07
9.92375e+06
9.75727e+06
9.7061e+06
9.69866e+06
9.70756e+06
9.70505e+06
9.66878e+06
9.74938e+06
9.76869e+06
9.75201e+06
9.6819e+06
9.71897e+06
9.70759e+06
9.74558e+06
9.91572e+06
1.01436e+07
1.03601e+07
1.11615e+07
1.21296e+07
6.89317e+06
1.49138e+07
1.86821e+07
1.20494e+07
1.03245e+07
9.61759e+06
9.31001e+06
9.12169e+06
9.04861e+06
9.03356e+06
9.03407e+06
9.03042e+06
8.99333e+06
9.06476e+06
9.08672e+06
9.07691e+06
9.02722e+06
9.05476e+06
9.06043e+06
9.12394e+06
9.28561e+06
9.60926e+06
1.02679e+07
1.1878e+07
1.79374e+07
1.49991e+07
2.54734e+07
6.8802e+07
1.81432e+07
1.07024e+07
9.70413e+06
9.00248e+06
8.69713e+06
8.59005e+06
8.55383e+06
8.54248e+06
8.53414e+06
8.50084e+06
8.5575e+06
8.58076e+06
8.58191e+06
8.55515e+06
8.57879e+06
8.60882e+06
8.70221e+06
9.01788e+06
9.6555e+06
1.05541e+07
1.75752e+07
6.72474e+07
2.50353e+07
2.65907e+07
7.61689e+07
8.67603e+07
2.39443e+07
1.09173e+07
9.09238e+06
8.71973e+06
8.44596e+06
8.34251e+06
8.29753e+06
8.27267e+06
8.24034e+06
8.27937e+06
8.30254e+06
8.31808e+06
8.32368e+06
8.37835e+06
8.49016e+06
8.76156e+06
9.15283e+06
1.12977e+07
2.26125e+07
8.07984e+07
7.64954e+07
2.60848e+07
2.63576e+07
5.52533e+07
7.97623e+07
1.04559e+08
5.75339e+07
1.31242e+07
9.64514e+06
8.82052e+06
8.58515e+06
8.55844e+06
8.53742e+06
8.51114e+06
8.54207e+06
8.56275e+06
8.58569e+06
8.61003e+06
8.65232e+06
8.88551e+06
9.94977e+06
1.45039e+07
6.57452e+07
9.10267e+07
7.527e+07
5.44846e+07
2.57591e+07
2.53362e+07
4.25932e+07
5.81034e+07
7.2526e+07
7.47413e+07
7.5268e+07
2.39227e+07
1.31132e+07
1.11294e+07
1.0403e+07
1.01017e+07
9.98758e+06
9.9868e+06
1.00172e+07
1.01025e+07
1.034e+07
1.10296e+07
1.31836e+07
2.62576e+07
7.75089e+07
7.5035e+07
6.60408e+07
5.65691e+07
4.22243e+07
2.64193e+07
2.4712e+07
3.3545e+07
4.33676e+07
5.42993e+07
5.90022e+07
6.78691e+07
5.13243e+07
4.51052e+07
4.15441e+07
3.27548e+07
3.45558e+07
3.56671e+07
3.64585e+07
3.61714e+07
3.50317e+07
3.30389e+07
4.01755e+07
4.90616e+07
5.20276e+07
6.8628e+07
5.81959e+07
5.05158e+07
4.26034e+07
3.34078e+07
2.58001e+07
2.00517e+07
2.52554e+07
3.22705e+07
4.19215e+07
4.93096e+07
6.18289e+07
7.03697e+07
7.05458e+07
5.76034e+07
4.97166e+07
5.21863e+07
5.48761e+07
5.64867e+07
5.58447e+07
5.29905e+07
5.32729e+07
5.78855e+07
7.04813e+07
7.05908e+07
6.13207e+07
4.71473e+07
3.9052e+07
3.09028e+07
2.45133e+07
1.99426e+07
1.48285e+07
1.91206e+07
2.64611e+07
3.72947e+07
4.53735e+07
5.29856e+07
6.31969e+07
6.87647e+07
5.16663e+07
3.83956e+07
3.52732e+07
3.55317e+07
3.61955e+07
3.58641e+07
3.579e+07
4.15327e+07
5.18303e+07
6.46791e+07
6.25912e+07
5.40013e+07
4.51794e+07
3.59963e+07
2.53739e+07
1.85635e+07
1.45219e+07
1.22312e+07
1.67232e+07
2.39657e+07
3.72437e+07
4.79216e+07
4.62664e+07
4.89609e+07
5.47584e+07
4.56281e+07
3.42803e+07
2.87942e+07
2.71872e+07
2.70296e+07
2.74823e+07
2.94911e+07
3.55388e+07
4.39701e+07
5.12212e+07
4.87609e+07
4.78954e+07
5.03868e+07
3.68962e+07
2.35677e+07
1.64496e+07
1.20637e+07
1.1652e+07
1.8256e+07
2.48966e+07
3.68571e+07
4.35517e+07
3.92505e+07
3.85526e+07
4.22866e+07
3.89153e+07
3.14057e+07
2.55673e+07
2.23671e+07
2.13897e+07
2.28841e+07
2.66088e+07
3.21115e+07
3.69949e+07
3.96873e+07
3.85724e+07
4.07444e+07
4.50584e+07
3.61822e+07
2.47428e+07
1.83345e+07
1.17176e+07
3.0114e+07
5.98345e+07
4.51213e+07
3.21522e+07
3.46619e+07
3.16218e+07
3.08715e+07
3.3842e+07
3.29201e+07
2.7751e+07
2.21879e+07
1.84142e+07
1.72225e+07
1.92067e+07
2.34936e+07
2.83108e+07
3.11961e+07
3.1937e+07
3.10125e+07
3.28215e+07
3.57014e+07
3.30312e+07
5.00198e+07
6.54802e+07
3.87036e+07
9.38286e+07
2.98672e+08
6.15595e+07
2.60954e+07
2.74305e+07
2.56923e+07
2.52885e+07
2.77543e+07
2.77256e+07
2.39429e+07
1.89793e+07
1.52166e+07
1.40003e+07
1.60237e+07
2.01874e+07
2.43009e+07
2.61857e+07
2.6346e+07
2.53774e+07
2.65628e+07
2.80874e+07
2.69859e+07
6.76436e+07
2.95125e+08
1.08314e+08
1.11073e+08
2.34083e+08
5.09825e+07
2.17395e+07
2.22168e+07
2.12256e+07
2.09577e+07
2.30568e+07
2.32863e+07
2.03419e+07
1.6023e+07
1.26223e+07
1.14711e+07
1.32585e+07
1.69862e+07
2.05499e+07
2.19102e+07
2.19383e+07
2.09912e+07
2.17484e+07
2.26009e+07
2.24047e+07
5.1568e+07
2.23989e+08
1.07628e+08
9.47667e+07
2.35733e+08
3.9928e+07
1.86071e+07
1.82677e+07
1.7623e+07
1.74916e+07
1.92065e+07
1.95222e+07
1.71142e+07
1.33817e+07
1.04547e+07
9.50238e+06
1.10539e+07
1.42958e+07
1.73627e+07
1.83851e+07
1.82939e+07
1.75599e+07
1.80533e+07
1.86436e+07
1.92575e+07
4.12088e+07
2.42306e+08
9.40653e+07
8.66844e+07
2.25655e+08
3.33315e+07
1.62342e+07
1.54078e+07
1.48311e+07
1.48089e+07
1.61431e+07
1.64325e+07
1.44274e+07
1.12587e+07
8.76798e+06
7.9651e+06
9.28118e+06
1.20786e+07
1.46966e+07
1.55077e+07
1.53703e+07
1.48309e+07
1.51821e+07
1.58025e+07
1.68575e+07
3.50505e+07
2.3994e+08
8.73248e+07
8.01947e+07
2.19029e+08
2.8717e+07
1.42025e+07
1.32258e+07
1.26202e+07
1.26924e+07
1.36855e+07
1.38922e+07
1.22223e+07
9.55816e+06
7.43338e+06
6.74722e+06
7.85248e+06
1.02299e+07
1.24428e+07
1.31229e+07
1.29941e+07
1.26062e+07
1.28365e+07
1.35714e+07
1.46816e+07
3.00834e+07
2.30455e+08
8.17987e+07
7.66026e+07
1.9283e+08
2.428e+07
1.24574e+07
1.15288e+07
1.08716e+07
1.09673e+07
1.16707e+07
1.17534e+07
1.03256e+07
8.12051e+06
6.35365e+06
5.77806e+06
6.72861e+06
8.75405e+06
1.06119e+07
1.12155e+07
1.11175e+07
1.08453e+07
1.10335e+07
1.18796e+07
1.29421e+07
2.60035e+07
2.06893e+08
7.84814e+07
7.23142e+07
1.74991e+08
2.13332e+07
1.10784e+07
1.01914e+07
9.50771e+06
9.57688e+06
1.00601e+07
1.00467e+07
8.82755e+06
6.9861e+06
5.49113e+06
4.99585e+06
5.80219e+06
7.51313e+06
9.07883e+06
9.63061e+06
9.58386e+06
9.41513e+06
9.60777e+06
1.04661e+07
1.14704e+07
2.29889e+07
1.91049e+08
7.36581e+07
6.67517e+07
1.64427e+08
1.92549e+07
9.93088e+06
9.08956e+06
8.44894e+06
8.43701e+06
8.73776e+06
8.64706e+06
7.59124e+06
6.05992e+06
4.79255e+06
4.35691e+06
5.04026e+06
6.47209e+06
7.77951e+06
8.30913e+06
8.32148e+06
8.24048e+06
8.45759e+06
9.27078e+06
1.02362e+07
2.02572e+07
1.66944e+08
6.95486e+07
6.18228e+07
1.46501e+08
1.7514e+07
8.98814e+06
8.12037e+06
7.55842e+06
7.49705e+06
7.6268e+06
7.45307e+06
6.53363e+06
5.2604e+06
4.20038e+06
3.83154e+06
4.42975e+06
5.65903e+06
6.76282e+06
7.24613e+06
7.30236e+06
7.30444e+06
7.53882e+06
8.2595e+06
9.2486e+06
1.8494e+07
1.51371e+08
6.54438e+07
5.73636e+07
1.26953e+08
1.6115e+07
8.24731e+06
7.30098e+06
6.80442e+06
6.71702e+06
6.72452e+06
6.49848e+06
5.68863e+06
4.62439e+06
3.72036e+06
3.39469e+06
3.91051e+06
4.95028e+06
5.87732e+06
6.34289e+06
6.45139e+06
6.52705e+06
6.75422e+06
7.37154e+06
8.43206e+06
1.67702e+07
1.31215e+08
6.0649e+07
5.35398e+07
1.13331e+08
1.50304e+07
7.68518e+06
6.6035e+06
6.14706e+06
6.05075e+06
5.98078e+06
5.71955e+06
5.00535e+06
4.09975e+06
3.31733e+06
3.031e+06
3.47378e+06
4.36766e+06
5.16258e+06
5.59757e+06
5.74539e+06
5.86621e+06
6.07639e+06
6.62602e+06
7.80306e+06
1.53964e+07
1.14626e+08
5.64027e+07
4.98529e+07
9.71102e+07
1.39215e+07
7.23568e+06
6.01979e+06
5.58695e+06
5.45856e+06
5.33985e+06
5.0427e+06
4.40579e+06
3.64141e+06
2.97358e+06
2.72404e+06
3.11696e+06
3.89148e+06
4.57115e+06
4.98031e+06
5.15866e+06
5.29393e+06
5.50616e+06
6.02168e+06
7.30987e+06
1.44403e+07
1.02843e+08
5.23817e+07
4.67552e+07
8.45707e+07
1.29186e+07
6.89404e+06
5.55181e+06
5.10596e+06
4.93676e+06
4.80214e+06
4.49241e+06
3.92563e+06
3.26836e+06
2.68367e+06
2.46382e+06
2.80364e+06
3.47881e+06
4.0686e+06
4.44911e+06
4.65156e+06
4.78851e+06
5.01266e+06
5.52647e+06
6.91908e+06
1.35494e+07
8.88102e+07
4.88843e+07
4.3976e+07
7.54662e+07
1.19228e+07
6.59172e+06
5.22075e+06
4.68889e+06
4.49132e+06
4.33546e+06
4.0273e+06
3.51616e+06
2.94991e+06
2.43797e+06
2.24141e+06
2.53963e+06
3.12652e+06
3.64067e+06
3.99986e+06
4.20881e+06
4.35705e+06
4.60635e+06
5.16534e+06
6.62142e+06
1.24651e+07
7.7441e+07
4.59516e+07
4.11311e+07
6.68922e+07
1.09864e+07
6.3267e+06
4.97303e+06
4.33341e+06
4.0987e+06
3.92051e+06
3.62162e+06
3.16424e+06
2.66988e+06
2.22039e+06
2.04976e+06
2.31459e+06
2.83895e+06
3.29101e+06
3.61944e+06
3.82245e+06
3.9872e+06
4.25366e+06
4.9137e+06
6.37789e+06
1.15252e+07
6.98636e+07
4.32932e+07
3.89518e+07
6.03383e+07
1.01963e+07
6.194e+06
4.79334e+06
4.04349e+06
3.76652e+06
3.5658e+06
3.27579e+06
2.86685e+06
2.43417e+06
2.0368e+06
1.88346e+06
2.11762e+06
2.57833e+06
2.97721e+06
3.28103e+06
3.48357e+06
3.66131e+06
3.95848e+06
4.72208e+06
6.22336e+06
1.05866e+07
6.22834e+07
4.06607e+07
3.68985e+07
5.58672e+07
9.47661e+06
6.04732e+06
4.66673e+06
3.83099e+06
3.47487e+06
3.25764e+06
2.97839e+06
2.6144e+06
2.23228e+06
1.8746e+06
1.73844e+06
1.94514e+06
2.35848e+06
2.71168e+06
2.98627e+06
3.19081e+06
3.37733e+06
3.74244e+06
4.60625e+06
6.0931e+06
9.74214e+06
5.74053e+07
3.85161e+07
3.46429e+07
5.07344e+07
8.6902e+06
5.76087e+06
4.61168e+06
3.6735e+06
3.22977e+06
2.98907e+06
2.71441e+06
2.38551e+06
2.04808e+06
1.73186e+06
1.61161e+06
1.79827e+06
2.16866e+06
2.48233e+06
2.73562e+06
2.93959e+06
3.1405e+06
3.57987e+06
4.55971e+06
5.86014e+06
8.98692e+06
5.40538e+07
3.64171e+07
3.28171e+07
4.72074e+07
7.9905e+06
5.44833e+06
4.61736e+06
3.56515e+06
3.03834e+06
2.76275e+06
2.49137e+06
2.19348e+06
1.89304e+06
1.60684e+06
1.49903e+06
1.66423e+06
1.99967e+06
2.27915e+06
2.51226e+06
2.72408e+06
2.95678e+06
3.47166e+06
4.54006e+06
5.51821e+06
8.28024e+06
5.00742e+07
3.42103e+07
3.13127e+07
4.43775e+07
7.56413e+06
5.14841e+06
4.6899e+06
3.50231e+06
2.89504e+06
2.57798e+06
2.30094e+06
2.02459e+06
1.75441e+06
1.49636e+06
1.39933e+06
1.5467e+06
1.84792e+06
2.10128e+06
2.32293e+06
2.54596e+06
2.82305e+06
3.40771e+06
4.68048e+06
5.21376e+06
7.66846e+06
4.66612e+07
3.23069e+07
2.98581e+07
4.16714e+07
7.0396e+06
4.79282e+06
4.58953e+06
3.48594e+06
2.78044e+06
2.43641e+06
2.13852e+06
1.87528e+06
1.63011e+06
1.39584e+06
1.30981e+06
1.44341e+06
1.72072e+06
1.95061e+06
2.16533e+06
2.40934e+06
2.71557e+06
3.41628e+06
4.67848e+06
4.93072e+06
7.67934e+06
4.35868e+07
3.08589e+07
2.86565e+07
3.93023e+07
6.7029e+06
4.45214e+06
4.35777e+06
3.56419e+06
2.7058e+06
2.32701e+06
2.00917e+06
1.74828e+06
1.52159e+06
1.30759e+06
1.22971e+06
1.34975e+06
1.60193e+06
1.81565e+06
2.03195e+06
2.30412e+06
2.64177e+06
3.47961e+06
4.45331e+06
4.5711e+06
7.1719e+06
4.09701e+07
2.9549e+07
2.76693e+07
3.69746e+07
6.89903e+06
4.16534e+06
4.07945e+06
3.71805e+06
2.68932e+06
2.23493e+06
1.91108e+06
1.64376e+06
1.42795e+06
1.22821e+06
1.1574e+06
1.26593e+06
1.49842e+06
1.70167e+06
1.92846e+06
2.22063e+06
2.63509e+06
3.68934e+06
4.17955e+06
4.24847e+06
6.98354e+06
3.85687e+07
2.84745e+07
2.66984e+07
3.50357e+07
6.49662e+06
3.87757e+06
3.77998e+06
3.70686e+06
2.76662e+06
2.17063e+06
1.82854e+06
1.55912e+06
1.34575e+06
1.15788e+06
1.0932e+06
1.19339e+06
1.41337e+06
1.61207e+06
1.84665e+06
2.16431e+06
2.74917e+06
3.73394e+06
3.88369e+06
4.00898e+06
7.14294e+06
3.63395e+07
2.75938e+07
2.58387e+07
3.30573e+07
6.57899e+06
3.67339e+06
3.49623e+06
3.49235e+06
2.99287e+06
2.16474e+06
1.76641e+06
1.49629e+06
1.28209e+06
1.09991e+06
1.03746e+06
1.13127e+06
1.34298e+06
1.5429e+06
1.77994e+06
2.15801e+06
2.97157e+06
3.52989e+06
3.59156e+06
3.76079e+06
6.93526e+06
3.43587e+07
2.67471e+07
2.5022e+07
3.13078e+07
6.72633e+06
3.53731e+06
3.25265e+06
3.266e+06
3.05864e+06
2.29848e+06
1.72448e+06
1.44035e+06
1.23334e+06
1.05413e+06
988274
1.08233e+06
1.28858e+06
1.4855e+06
1.73275e+06
2.28229e+06
3.07035e+06
3.3013e+06
3.33061e+06
3.57453e+06
6.79778e+06
3.25294e+07
2.58963e+07
2.38615e+07
2.9504e+07
6.56406e+06
3.38955e+06
3.04211e+06
3.03247e+06
2.8982e+06
2.52222e+06
1.74705e+06
1.39414e+06
1.19111e+06
1.01817e+06
950792
1.0448e+06
1.24414e+06
1.43965e+06
1.75724e+06
2.53154e+06
2.93054e+06
3.06441e+06
3.11105e+06
3.46691e+06
6.88213e+06
3.05052e+07
2.47004e+07
2.2454e+07
2.74708e+07
6.45383e+06
3.29245e+06
2.86331e+06
2.8083e+06
2.72841e+06
2.63226e+06
1.89027e+06
1.37249e+06
1.15739e+06
987514
922949
1.01246e+06
1.20614e+06
1.41309e+06
1.88886e+06
2.67501e+06
2.7603e+06
2.83091e+06
2.9179e+06
3.34725e+06
6.65071e+06
2.84096e+07
2.32342e+07
1.9482e+07
2.44546e+07
6.28924e+06
3.20763e+06
2.71378e+06
2.61857e+06
2.55455e+06
2.51576e+06
2.14197e+06
1.43345e+06
1.13687e+06
961388
897684
984459
1.17929e+06
1.45952e+06
2.1467e+06
2.57314e+06
2.58609e+06
2.63442e+06
2.75081e+06
3.2348e+06
6.3618e+06
2.52992e+07
2.01831e+07
9.30899e+06
5.23719e+06
3.57593e+06
2.4316e+06
1.68524e+06
1.27234e+06
1.03879e+06
885310
761485
648120
538149
432356
337721
261376
202078
158980
128247
106166
89662.6
78193.1
69811.2
63386.7
58155.8
53754.6
49834
46550.1
44188.6
43757.7
50003.4
97406.3
1.03571e+07
5.51992e+06
3.738e+06
2.5412e+06
1.76534e+06
1.33902e+06
1.09656e+06
937653
812027
699579
590290
483051
383194
298636
230442
179207
141795
114286
94423.6
80553.4
70552
63366.4
57883.3
53304.3
49449.1
46282
44069.5
43911.8
50646.8
98136.8
1.05741e+07
5.62833e+06
3.88975e+06
2.65924e+06
1.85444e+06
1.41477e+06
1.1618e+06
999496
873820
761692
652072
542256
436592
343202
264928
203972
158393
124493
100573
83622.4
71931.4
63716.3
57701.8
52973.2
49087.7
46002.9
43989.4
44146.8
51476.1
99299
1.10299e+07
5.96631e+06
4.15795e+06
2.85311e+06
1.99492e+06
1.52061e+06
1.24843e+06
1.07942e+06
952409
839230
728837
616826
505546
401655
311343
237616
181323
139710
109898
88995.3
74729.9
64935.3
58130.8
52942.4
48904
45856.7
44018.7
44457.8
52353.7
100282
1.1621e+07
6.37656e+06
4.49486e+06
3.10405e+06
2.17675e+06
1.65399e+06
1.3575e+06
1.17689e+06
1.04617e+06
932071
819896
704161
585754
472290
368004
280290
211573
159935
122737
96679.5
78922.8
67003.8
58951.1
53099.3
48786.2
45725.5
44017.4
44760.1
53198.2
101407
1.22659e+07
6.81882e+06
4.86734e+06
3.39438e+06
2.38735e+06
1.81085e+06
1.48641e+06
1.29112e+06
1.15292e+06
1.03494e+06
920081
800362
675331
552273
435303
332945
250243
186500
139988
107287
85145.3
70216
60349.5
53574.8
48820.9
45690.1
44055.5
45113.6
54114.4
102805
1.29441e+07
7.28254e+06
5.28092e+06
3.72578e+06
2.63392e+06
1.99515e+06
1.63828e+06
1.42427e+06
1.27536e+06
1.15079e+06
1.032e+06
907905
776740
643139
514299
397115
298666
220708
163052
121942
93909
74936.3
62530.2
54425.9
49042.4
45762.6
44218.7
45603.6
55115.1
104472
1.35873e+07
7.7713e+06
5.74041e+06
4.10224e+06
2.92201e+06
2.21315e+06
1.81702e+06
1.58065e+06
1.41614e+06
1.2822e+06
1.15692e+06
1.02693e+06
889298
746415
606286
474253
358938
265289
194293
142370
106178
81768.3
65904.4
55908.9
49646
46054.2
44559.1
46276.3
56232.1
106448
1.41849e+07
8.27301e+06
6.23891e+06
4.52957e+06
3.25845e+06
2.4733e+06
2.0295e+06
1.76508e+06
1.57877e+06
1.43121e+06
1.29683e+06
1.15855e+06
1.01374e+06
862802
712225
566045
434112
323273
235882
169949
122936
91356.7
70965.8
58347.3
50792.4
46609.1
45095.9
47087.1
57508.6
108763
1.47308e+07
8.79205e+06
6.7846e+06
5.01328e+06
3.6479e+06
2.78002e+06
2.28142e+06
1.97938e+06
1.76547e+06
1.59914e+06
1.45179e+06
1.30324e+06
1.15094e+06
992647
832251
673766
525697
396328
289451
206148
145709
104774
78313.6
62040.5
52565.7
47482.1
45790.7
47950.1
58823.6
111429
1.53697e+07
9.3559e+06
7.38601e+06
5.55536e+06
4.09177e+06
3.13795e+06
2.57733e+06
2.2297e+06
1.97858e+06
1.787e+06
1.62259e+06
1.46198e+06
1.30154e+06
1.13613e+06
966614
797333
634023
485063
356421
253002
176113
123234
88682.2
67348.7
55095.2
48720.8
46621.8
48819.9
60192.2
114544
1.61058e+07
9.96811e+06
8.03263e+06
6.14653e+06
4.58977e+06
3.54916e+06
2.92559e+06
2.521e+06
2.22196e+06
1.99606e+06
1.81054e+06
1.63535e+06
1.46513e+06
1.29198e+06
1.1142e+06
935262
758118
589918
438872
313149
216607
148343
103006
74711.2
58570.8
50399
47606.6
49750.1
61692.8
118218
1.68643e+07
1.05826e+07
8.69966e+06
6.77777e+06
5.14379e+06
4.02098e+06
3.33077e+06
2.85979e+06
2.50104e+06
2.23078e+06
2.01856e+06
1.82511e+06
1.64208e+06
1.45993e+06
1.27404e+06
1.08598e+06
895712
710163
538256
389441
269936
182062
122507
84936.7
63479.8
52641.8
48764.9
50801.7
63352.1
122206
1.74774e+07
1.12001e+07
9.36673e+06
7.44471e+06
5.75649e+06
4.56015e+06
3.80072e+06
3.25478e+06
2.82166e+06
2.49777e+06
2.25185e+06
2.03578e+06
1.83633e+06
1.64191e+06
1.44633e+06
1.24894e+06
1.04699e+06
846477
655770
483754
338886
227183
149419
99473.1
70486.1
55778.6
50309
52090.8
64616.1
125558
1.80945e+07
1.17963e+07
1.00243e+07
8.1402e+06
6.42895e+06
5.17188e+06
4.34538e+06
3.71282e+06
3.19026e+06
2.80614e+06
2.52021e+06
2.27577e+06
2.05382e+06
1.84193e+06
1.63384e+06
1.42458e+06
1.21237e+06
998642
790683
595889
424530
286408
185773
119995
80510.2
60359
52314.5
53087.3
65923.1
129180
1.85974e+07
1.23892e+07
1.06915e+07
8.8621e+06
7.15823e+06
5.8646e+06
4.97696e+06
4.23832e+06
3.62076e+06
3.17502e+06
2.83808e+06
2.55528e+06
2.30207e+06
2.06535e+06
1.84002e+06
1.61521e+06
1.39103e+06
1.16499e+06
940612
724757
527628
361079
233633
147371
94405.7
66333.9
54619.3
54126.9
67377.9
133032
1.93455e+07
1.28729e+07
1.1347e+07
9.59902e+06
7.93263e+06
6.64276e+06
5.70399e+06
4.85179e+06
4.13381e+06
3.61775e+06
3.2183e+06
2.8833e+06
2.58859e+06
2.31811e+06
2.06839e+06
1.82465e+06
1.58437e+06
1.34341e+06
1.1034e+06
868552
646674
451160
294452
183497
112880
74273.1
57690.8
55479.6
68525.2
137119
1.96942e+07
1.33444e+07
1.19417e+07
1.03416e+07
8.75321e+06
7.50834e+06
6.53594e+06
5.57276e+06
4.75002e+06
4.15054e+06
3.67617e+06
3.27344e+06
2.92451e+06
2.60972e+06
2.32684e+06
2.05698e+06
1.79627e+06
1.53681e+06
1.27993e+06
1.02607e+06
780855
557056
369526
229978
137470
84860.8
61567.6
56868.2
69147
140926
2.01576e+07
1.36436e+07
1.24038e+07
1.10449e+07
9.6095e+06
8.46325e+06
7.48683e+06
6.42567e+06
5.49361e+06
4.79277e+06
4.22712e+06
3.74289e+06
3.32223e+06
2.95119e+06
2.62411e+06
2.31922e+06
2.03e+06
1.74769e+06
1.47044e+06
1.19601e+06
928807
678315
459612
288514
169294
98847
66537
58305
69659.9
144261
2.03154e+07
1.39702e+07
1.279e+07
1.16726e+07
1.04877e+07
9.51213e+06
8.57525e+06
7.43912e+06
6.39048e+06
5.56805e+06
4.8914e+06
4.3077e+06
3.79704e+06
3.35445e+06
2.97006e+06
2.61876e+06
2.2915e+06
1.97867e+06
1.67583e+06
1.37826e+06
1.08864e+06
813204
564229
360198
209962
117381
73099.3
60017.6
70093.4
147596
2.05512e+07
1.40951e+07
1.29914e+07
1.21668e+07
1.13748e+07
1.0659e+07
9.82693e+06
8.64548e+06
7.47051e+06
6.50547e+06
5.69575e+06
4.98906e+06
4.36791e+06
3.83293e+06
3.3754e+06
2.9639e+06
2.58686e+06
2.23406e+06
1.89862e+06
1.5738e+06
1.25969e+06
959217
681143
445518
261335
142087
82106.2
62403
70618.8
149857
2.0588e+07
1.42569e+07
1.30826e+07
1.25674e+07
1.22553e+07
1.19218e+07
1.12743e+07
1.00824e+07
8.76964e+06
7.63799e+06
6.66702e+06
5.80892e+06
5.05243e+06
4.40476e+06
3.85274e+06
3.3645e+06
2.92372e+06
2.51947e+06
2.14195e+06
1.78255e+06
1.43931e+06
1.11179e+06
808168
542609
324226
174219
94398.4
65799.7
71425.3
151942
2.08373e+07
1.42977e+07
1.31054e+07
1.29141e+07
1.32039e+07
1.33588e+07
1.2962e+07
1.17915e+07
1.03316e+07
9.00804e+06
7.84116e+06
6.79729e+06
5.87511e+06
5.08924e+06
4.41878e+06
3.83226e+06
3.3101e+06
2.84007e+06
2.4084e+06
2.00511e+06
1.62589e+06
1.26997e+06
943022
648104
397516
214295
110494
70306.8
72379.6
153953
2.03672e+07
1.49099e+07
1.35903e+07
1.36301e+07
1.44435e+07
1.50819e+07
1.49585e+07
1.38267e+07
1.22207e+07
1.06681e+07
9.26298e+06
7.99037e+06
6.86488e+06
5.9101e+06
5.09406e+06
4.38166e+06
3.75571e+06
3.20248e+06
2.70385e+06
2.24815e+06
1.82933e+06
1.444e+06
1.08922e+06
762957
480864
263121
131384
76361
73661.1
155705
1.88583e+07
2.00716e+07
1.69135e+07
1.5761e+07
1.65575e+07
1.7305e+07
1.73843e+07
1.62752e+07
1.44986e+07
1.26803e+07
1.09884e+07
9.43327e+06
8.05646e+06
6.89169e+06
5.89596e+06
5.02834e+06
4.27229e+06
3.61747e+06
3.04046e+06
2.52542e+06
2.06277e+06
1.64229e+06
1.25289e+06
892764
577727
323707
159312
84957.1
75745.7
157819
96437.4
49939.1
43621.9
44286.2
46518.5
49895.9
54042.6
58464.9
63744.7
70451
78383.1
90148.5
106499
128806
158685
199860
256371
331411
424001
526404
634173
746608
871990
1.02715e+06
1.26792e+06
1.69631e+06
2.46573e+06
3.63428e+06
5.30789e+06
9.43451e+06
97059.4
50468.8
43797.7
44057.5
46286.4
49517.5
53372.4
58154.4
63850.8
71235.3
80793.6
94456.2
113921
141415
177879
227102
292222
374534
472181
576161
683614
796084
923964
1.08319e+06
1.33214e+06
1.77319e+06
2.57157e+06
3.79595e+06
5.59185e+06
1.05128e+07
97919.5
51128.6
44018.6
43944.2
46061.7
49201.9
52981.5
57822.7
64039.3
72432.2
83872.8
100211
123472
156899
201328
259939
334735
425517
528459
635435
743868
856686
985946
1.15028e+06
1.40547e+06
1.85995e+06
2.68742e+06
3.94377e+06
5.70592e+06
1.07381e+07
99060.6
51848
44319.4
44004.5
45980.8
49059.9
52999.7
58048.3
65045.7
74794.9
88761.9
109024
137687
177975
232880
303705
390543
490909
599091
708689
818969
933584
1.06563e+06
1.23747e+06
1.50918e+06
1.99608e+06
2.879e+06
4.21101e+06
6.04743e+06
1.12106e+07
100319
52661.7
44695.6
44104.9
45924.4
48945.2
53127.8
58791.8
66729.7
78448.7
95674
121008
157000
206711
273151
357344
457669
568364
683454
796625
908797
1.02572e+06
1.16294e+06
1.34623e+06
1.64074e+06
2.17849e+06
3.12894e+06
4.54929e+06
6.4649e+06
1.18239e+07
101898
53529.9
45124
44234.1
45906.4
48991.7
53536.7
60079.2
69490.2
83956.3
105636
137312
182165
243954
323797
422582
535104
655855
777970
896923
1.01223e+06
1.13189e+06
1.27618e+06
1.47326e+06
1.7952e+06
2.38594e+06
3.41654e+06
4.92317e+06
6.91092e+06
1.25066e+07
103791
54457.6
45594.9
44413.6
46017.6
49230.3
54280.2
62044.8
73791.8
92026.1
119467
159208
214975
291081
386833
501160
626664
756872
885887
1.0104e+06
1.12981e+06
1.25463e+06
1.40844e+06
1.62326e+06
1.97624e+06
2.62907e+06
3.74554e+06
5.33476e+06
7.37889e+06
1.32075e+07
105906
55529.5
46143.6
44723.4
46297.5
49836.2
55656.4
65114.8
80108
103370
138644
189034
258109
350318
463521
593863
732630
872716
1.00786e+06
1.13721e+06
1.26273e+06
1.39585e+06
1.5627e+06
1.79961e+06
2.19131e+06
2.9155e+06
4.12184e+06
5.79683e+06
7.87832e+06
1.38897e+07
108427
56776.4
46834.7
45193.7
46795
50885.5
57822.7
69626.2
88910.7
119107
164463
228744
314283
423934
555232
700886
851806
1.00139e+06
1.14324e+06
1.2788e+06
1.41234e+06
1.55755e+06
1.74457e+06
2.00839e+06
2.44685e+06
3.24932e+06
4.54743e+06
6.2971e+06
8.39146e+06
1.45228e+07
110933
58100.7
47618.6
45776
47527.8
52396.9
61045.4
76089.4
101076
140317
198373
279593
385216
513744
662509
821962
983969
1.14206e+06
1.29127e+06
1.43573e+06
1.58079e+06
1.74345e+06
1.95792e+06
2.25673e+06
2.74971e+06
3.63699e+06
5.03158e+06
6.84435e+06
8.91711e+06
1.50955e+07
113162
59480.6
48501.8
46509.9
48501.2
54458.2
65561.9
85196.5
117650
168303
242056
343653
471409
619896
784483
956126
1.12794e+06
1.29363e+06
1.45106e+06
1.60689e+06
1.76847e+06
1.95526e+06
2.20625e+06
2.54951e+06
3.10168e+06
4.08021e+06
5.57483e+06
7.44572e+06
9.48089e+06
1.5713e+07
115863
60871.8
49445.7
47406.2
49885.7
57289
71749.1
97680.9
140166
205309
298232
422164
572619
740839
919575
1.10171e+06
1.28215e+06
1.45575e+06
1.6232e+06
1.79327e+06
1.97601e+06
2.19436e+06
2.49285e+06
2.8901e+06
3.50757e+06
4.57567e+06
6.16884e+06
8.09553e+06
1.00995e+07
1.64362e+07
119199
62279.8
50399.5
48470.8
51852.3
61359.4
80405.1
114623
170202
254002
369100
516216
688005
874114
1.06594e+06
1.25727e+06
1.44601e+06
1.62934e+06
1.81021e+06
1.99849e+06
2.20729e+06
2.46615e+06
2.82385e+06
3.28489e+06
3.97459e+06
5.12834e+06
6.80593e+06
8.7742e+06
1.0739e+07
1.72305e+07
122936
63737
51412
49782.9
54499.2
67089.4
92561.3
137552
209836
316167
456790
626456
817246
1.01857e+06
1.22169e+06
1.42176e+06
1.62028e+06
1.81654e+06
2.01462e+06
2.22634e+06
2.46808e+06
2.77751e+06
3.20631e+06
3.74302e+06
4.50779e+06
5.73617e+06
7.47587e+06
9.45328e+06
1.13795e+07
1.78769e+07
126907
65231.8
52549.2
51470.3
58030.6
75032.9
109253
168547
261571
393377
559583
751997
959964
1.17423e+06
1.38694e+06
1.59804e+06
1.80886e+06
2.02288e+06
2.24417e+06
2.48555e+06
2.76777e+06
3.13628e+06
3.64995e+06
4.27702e+06
5.11028e+06
6.40213e+06
8.17252e+06
1.01213e+07
1.19898e+07
1.85327e+07
131612
67027.7
53813.1
53663.6
62888.8
86106.4
132076
209768
327769
486761
678272
891622
1.11532e+06
1.34142e+06
1.56554e+06
1.79143e+06
2.01895e+06
2.25786e+06
2.51084e+06
2.79057e+06
3.12343e+06
3.55635e+06
4.16422e+06
4.89386e+06
5.79359e+06
7.12531e+06
8.89482e+06
1.07966e+07
1.26139e+07
1.90649e+07
136794
68362.1
55147.6
56388.6
69463.7
101248
162484
262875
408815
595564
811035
1.04329e+06
1.28199e+06
1.52264e+06
1.76247e+06
2.00688e+06
2.25827e+06
2.53073e+06
2.826e+06
3.15767e+06
3.5531e+06
4.05821e+06
4.7615e+06
5.60374e+06
6.56325e+06
7.89567e+06
9.63057e+06
1.14628e+07
1.31264e+07
1.98778e+07
140265
68952.3
56407.4
59619.6
77992.3
121332
201998
329155
504656
718772
956909
1.20704e+06
1.46206e+06
1.72117e+06
1.98182e+06
2.25225e+06
2.53682e+06
2.8527e+06
3.20283e+06
3.60222e+06
4.07233e+06
4.66207e+06
5.46449e+06
6.41691e+06
7.42006e+06
8.71229e+06
1.03732e+07
1.20767e+07
1.36209e+07
2.02478e+07
142953
69183.8
57571.5
63531.2
89185
147597
252306
409431
614968
855187
1.11502e+06
1.38381e+06
1.65894e+06
1.94065e+06
2.23063e+06
2.53613e+06
2.86595e+06
3.23625e+06
3.65796e+06
4.14025e+06
4.70169e+06
5.39216e+06
6.29988e+06
7.35076e+06
8.36786e+06
9.56875e+06
1.10875e+07
1.25638e+07
1.39468e+07
2.07634e+07
145167
69433.2
58913
68581.8
103906
181368
314480
503452
738316
1.00322e+06
1.28445e+06
1.57587e+06
1.87588e+06
2.18772e+06
2.51644e+06
2.86835e+06
3.25684e+06
3.69643e+06
4.20817e+06
4.79087e+06
5.46248e+06
6.27287e+06
7.29681e+06
8.42541e+06
9.41335e+06
1.0449e+07
1.17272e+07
1.29715e+07
1.43062e+07
2.0978e+07
147453
70011.5
60829
75519.5
123594
224459
389006
610029
873208
1.16214e+06
1.46782e+06
1.78685e+06
2.11834e+06
2.46941e+06
2.84793e+06
3.25992e+06
3.72181e+06
4.25222e+06
4.87311e+06
5.57951e+06
6.38318e+06
7.33405e+06
8.48559e+06
9.66726e+06
1.05636e+07
1.13458e+07
1.22451e+07
1.31881e+07
1.4459e+07
2.12787e+07
150072
70974.5
63479.2
85026.5
149548
278490
476669
727923
1.01702e+06
1.33224e+06
1.66681e+06
2.0194e+06
2.3916e+06
2.79331e+06
3.23509e+06
3.72396e+06
4.27844e+06
4.92246e+06
5.67632e+06
6.53382e+06
7.49891e+06
8.61287e+06
9.90037e+06
1.11074e+07
1.18397e+07
1.22469e+07
1.26606e+07
1.3302e+07
1.46527e+07
2.13644e+07
152181
71908.8
66948.9
97677.6
182953
343810
575383
855910
1.16986e+06
1.51339e+06
1.88153e+06
2.27557e+06
2.69986e+06
3.16653e+06
3.68877e+06
4.27617e+06
4.94742e+06
5.72919e+06
6.64465e+06
7.68648e+06
8.84839e+06
1.0156e+07
1.15912e+07
1.27893e+07
1.33e+07
1.32305e+07
1.30513e+07
1.33477e+07
1.47055e+07
2.169e+07
154146
72744.4
71536.2
114358
224803
420074
684084
995220
1.33814e+06
1.71273e+06
2.11934e+06
2.56293e+06
3.05102e+06
3.59867e+06
4.2229e+06
4.93659e+06
5.752e+06
6.6989e+06
7.81203e+06
9.08103e+06
1.04834e+07
1.20202e+07
1.36197e+07
1.47845e+07
1.50538e+07
1.45269e+07
1.38377e+07
1.38745e+07
1.53268e+07
2.12273e+07
156606
74313.9
78083.8
136968
277579
509350
807315