/*--------------------------------*- C++ -*----------------------------------*\
| =========                 |                                                 |
| \\      /  F ield         | OpenFOAM: The Open Source CFD Toolbox           |
|  \\    /   O peration     | Version:  2112                                  |
|   \\  /    A nd           | Website:  www.openfoam.com                      |
|    \\/     M anipulation  |                                                 |
\*---------------------------------------------------------------------------*/
FoamFile
{
    version     2.0;
    format      ascii;
    arch        "LSB;label=32;scalar=64";
    class       volScalarField;
    location    "0.00967";
    object      nut;
}
// * * * * * * * * * * * * * * * * * * * * * * * * * * * * * * * * * * * * * //

dimensions      [0 2 -1 0 0 0 0];

internalField   nonuniform List<scalar> 
13875
(
0.0511678
0.0366257
0.0343674
0.0343315
0.0343023
0.0343372
0.0342854
0.0342478
0.0343005
0.0343206
0.0342927
0.0342884
0.0343202
0.0343412
0.0343301
0.0342933
0.0342676
0.0342894
0.0343024
0.0343265
0.0343038
0.0343343
0.0343815
0.0365666
0.0514321
0.0532618
0.0341202
0.0322236
0.032109
0.0320641
0.0320872
0.0320302
0.0319961
0.032037
0.0320512
0.032032
0.0320427
0.0320528
0.0320724
0.0320602
0.032047
0.0320037
0.0320343
0.032046
0.0320759
0.0320636
0.0321024
0.0322281
0.034055
0.0536415
0.0564569
0.033562
0.0318039
0.0315948
0.0315693
0.0315827
0.031471
0.0314195
0.0314478
0.0314522
0.0314284
0.0314583
0.03153
0.0315561
0.0315345
0.0314645
0.0314079
0.0314451
0.031478
0.0315676
0.0315644
0.0315802
0.0317946
0.0334958
0.0565964
0.0590707
0.0332329
0.0314899
0.0312779
0.0312616
0.031267
0.0311447
0.0310881
0.0311164
0.0311168
0.0310847
0.0311098
0.0312135
0.0312402
0.0312182
0.0311167
0.0310727
0.0311024
0.0311464
0.0312539
0.0312553
0.0312625
0.0314851
0.0331701
0.0591437
0.0611264
0.033004
0.0312464
0.0310031
0.0309839
0.0309832
0.0308568
0.0308042
0.0308307
0.0308296
0.0307971
0.0308201
0.030925
0.0309547
0.0309298
0.0308271
0.0307863
0.0308146
0.0308593
0.0309687
0.0309767
0.0309898
0.0312305
0.0329195
0.0612551
0.0628194
0.0328483
0.0310891
0.0307707
0.0307514
0.0307332
0.0305969
0.0305464
0.0305691
0.0305667
0.0305358
0.0305554
0.0306626
0.0306948
0.0306677
0.0305625
0.0305258
0.0305532
0.0305998
0.0307199
0.0307436
0.0307612
0.0310593
0.0328223
0.0629712
0.0648283
0.0330734
0.0311036
0.0306314
0.030568
0.0305248
0.0303689
0.0303153
0.0303342
0.0303283
0.0303001
0.0303166
0.0304267
0.0304587
0.0304286
0.0303219
0.0302928
0.0303204
0.0303761
0.030512
0.03056
0.0306333
0.0311137
0.0330702
0.0648667
0.0670952
0.0339368
0.0314246
0.0306481
0.0304841
0.0303722
0.0301865
0.0301178
0.0301263
0.0301169
0.0300928
0.0301033
0.0302178
0.0302521
0.0302192
0.030108
0.0300889
0.0301205
0.0301897
0.0303572
0.0304672
0.0306298
0.0313927
0.0338961
0.067362
0.0736478
0.0362967
0.0320405
0.0308445
0.0304736
0.0302803
0.0300436
0.0299603
0.0299583
0.0299423
0.0299226
0.029928
0.0300471
0.0300835
0.0300499
0.0299353
0.0299229
0.029958
0.030044
0.0302596
0.0304502
0.0308023
0.0319356
0.0360002
0.0741956
0.082902
0.0384717
0.0327368
0.0311896
0.0305799
0.030242
0.029968
0.0298762
0.0298618
0.0298387
0.0298236
0.0298268
0.0299449
0.0299829
0.0299513
0.0298477
0.0298329
0.0298727
0.0299652
0.0302199
0.03055
0.0310807
0.0326234
0.0381053
0.0835485
0.090718
0.0441368
0.0346498
0.0319967
0.0308178
0.0303575
0.0300393
0.0299072
0.0298695
0.029838
0.0298222
0.0298247
0.0299365
0.0299762
0.029953
0.0298738
0.0298569
0.0299037
0.0300352
0.0303035
0.0307939
0.031881
0.0343624
0.0432645
0.0893481
0.0950412
0.054523
0.0403865
0.0334578
0.0318703
0.0308306
0.0303288
0.0301368
0.0300568
0.0300125
0.0299912
0.0299953
0.0300911
0.030135
0.0301247
0.0300747
0.0300655
0.0301373
0.0303215
0.0308357
0.0317988
0.033227
0.0398468
0.0533651
0.0942577
0.086584
0.0687137
0.0516533
0.0418033
0.03439
0.0319447
0.0312806
0.030824
0.0306381
0.0305468
0.0305039
0.0305016
0.0305739
0.0306216
0.0306333
0.0306277
0.0306788
0.0308712
0.0313308
0.0320032
0.0347645
0.0415772
0.0509486
0.0687617
0.0866004
0.0795808
0.0659328
0.0581759
0.0656976
0.0416938
0.0371863
0.0336438
0.0324374
0.0320355
0.0319726
0.0319357
0.0319335
0.0319952
0.0320431
0.0320712
0.0320969
0.0321438
0.0325355
0.0340795
0.0382626
0.0432127
0.0657189
0.0578352
0.0661698
0.0816089
0.0753069
0.0642959
0.0565817
0.0606159
0.0562583
0.0538625
0.0443498
0.0388181
0.0367126
0.0358743
0.0354966
0.0353816
0.0354027
0.0354608
0.0355734
0.0358729
0.0366725
0.0389038
0.0451761
0.0552423
0.0557339
0.0612539
0.0566023
0.064151
0.0746615
0.0671496
0.0618607
0.054302
0.0572523
0.0561169
0.0571975
0.0544282
0.053099
0.0507324
0.0482859
0.0474479
0.0471222
0.0470385
0.0471151
0.04728
0.0477784
0.0504336
0.0542841
0.05546
0.0577213
0.0556091
0.0580124
0.0543145
0.0614954
0.0664784
0.0623877
0.0582097
0.052465
0.055029
0.0568574
0.0612012
0.0681078
0.0728349
0.0699317
0.0707038
0.0730306
0.0745124
0.0752788
0.0749522
0.0734026
0.0725615
0.0700257
0.0728769
0.068714
0.0612093
0.0562972
0.0553036
0.0519647
0.0575746
0.0624358
0.0569905
0.0546951
0.0530879
0.0568872
0.0599146
0.0629457
0.0709853
0.0791276
0.0742523
0.0703657
0.0692511
0.0693929
0.0699185
0.0696383
0.0697507
0.0726024
0.0739012
0.0767667
0.0708931
0.0642087
0.0609615
0.0576637
0.0528271
0.0542635
0.056788
0.0513659
0.0541597
0.0558751
0.0617794
0.0668063
0.0647375
0.0674455
0.0752337
0.0742659
0.070458
0.0687261
0.0683385
0.0684416
0.0689008
0.0698393
0.0717208
0.0728565
0.0731428
0.0677433
0.0667302
0.069731
0.063062
0.0562719
0.0544115
0.0521556
0.0493609
0.0573396
0.0603513
0.0656805
0.068587
0.0644858
0.0639722
0.0695775
0.0718224
0.0704232
0.0687604
0.0672478
0.0665024
0.0680777
0.070052
0.0709571
0.0699271
0.067834
0.0645495
0.0665463
0.0707788
0.0664807
0.0608976
0.0576492
0.0487828
0.0773795
0.0887132
0.0774078
0.065269
0.0649156
0.0615299
0.0607405
0.0655833
0.069361
0.0694617
0.0676925
0.0652562
0.0640704
0.066387
0.0690686
0.0695285
0.0672451
0.0641093
0.0614584
0.0634706
0.0667849
0.0669311
0.0799208
0.091818
0.0822914
0.128271
0.161942
0.0900537
0.0620111
0.0608091
0.0585342
0.0580762
0.062594
0.0669504
0.0678173
0.0659501
0.0628799
0.0614109
0.0641418
0.0673154
0.0676191
0.0647763
0.0613879
0.0587209
0.0602133
0.0623294
0.0638085
0.093186
0.165505
0.134456
0.152849
0.146239
0.0842353
0.059177
0.0574789
0.0559732
0.0557049
0.060144
0.0646575
0.0658018
0.0637554
0.060361
0.0587033
0.0615519
0.0650731
0.0655374
0.0624859
0.0591016
0.0562345
0.0572898
0.0586794
0.0607061
0.0839643
0.144491
0.153442
0.16153
0.146536
0.0768209
0.0570181
0.0547039
0.0536471
0.0536553
0.0579069
0.0624341
0.0636251
0.0613451
0.0577498
0.0561256
0.0590203
0.0627619
0.0634411
0.0602417
0.0568533
0.0541639
0.054818
0.0558683
0.0585735
0.0777676
0.150596
0.160643
0.167341
0.147346
0.0727793
0.0554579
0.05265
0.0516781
0.0519903
0.0559354
0.0602595
0.0613549
0.0589774
0.055329
0.0537346
0.0566014
0.060462
0.0612591
0.0581568
0.0548472
0.0523716
0.0527162
0.0538316
0.0570242
0.0744687
0.154283
0.167478
0.174497
0.151276
0.0700305
0.0539728
0.0510456
0.0500101
0.0506306
0.0542136
0.0581854
0.0591321
0.0567526
0.0531022
0.0515373
0.0542957
0.0581405
0.0590586
0.0562337
0.0530864
0.0507912
0.0508205
0.0521509
0.0553401
0.0715305
0.157068
0.177115
0.183948
0.147728
0.0668485
0.0525524
0.0497995
0.0486487
0.0494878
0.0527034
0.0561688
0.0568228
0.0544952
0.0510266
0.0495471
0.0522544
0.0560159
0.0569774
0.0544806
0.0515454
0.0494233
0.0493047
0.0509173
0.0540013
0.0689965
0.15532
0.184269
0.190095
0.146724
0.0649461
0.0514722
0.0488355
0.0475879
0.0484882
0.0513407
0.054327
0.0547515
0.0524991
0.0491701
0.0477414
0.0503234
0.0539375
0.0549823
0.0528783
0.0502116
0.0482731
0.0481037
0.0498115
0.0527796
0.0671626
0.155697
0.191875
0.195401
0.1484
0.0637882
0.0505888
0.0480437
0.0468315
0.0476193
0.0501012
0.0526184
0.0528072
0.0506726
0.0475107
0.0461034
0.0485431
0.0519358
0.0530258
0.0513659
0.0490122
0.0472694
0.0471257
0.0488131
0.0517144
0.0652691
0.150918
0.199919
0.202309
0.145467
0.062801
0.0498683
0.0472524
0.0462281
0.0469536
0.0489915
0.0509739
0.0509066
0.0488683
0.0459338
0.0446249
0.0470031
0.0502585
0.0513465
0.0499979
0.0479435
0.0464437
0.0463583
0.0479019
0.0509415
0.0645735
0.151479
0.203731
0.20438
0.141626
0.0622355
0.0494424
0.046559
0.0456579
0.0463291
0.0479725
0.0495052
0.0492328
0.0473207
0.0445604
0.0432845
0.0455477
0.0485984
0.0496933
0.0487246
0.0470144
0.0457749
0.045674
0.0470223
0.050323
0.0636388
0.146533
0.208998
0.206727
0.141582
0.0621477
0.0493164
0.0459324
0.0450841
0.0457394
0.047065
0.0482032
0.0477734
0.0459432
0.0433092
0.0420812
0.0442075
0.0471167
0.0482482
0.0475743
0.0461823
0.0451454
0.0450009
0.0462435
0.0500003
0.0630588
0.143529
0.211565
0.210892
0.137121
0.0618483
0.0493787
0.0454534
0.0446104
0.0451407
0.0462042
0.0469298
0.0463391
0.0446103
0.0421595
0.0409933
0.0430616
0.0458268
0.0469389
0.0465108
0.0454219
0.044517
0.0444202
0.0456587
0.0499454
0.06314
0.1433
0.21327
0.212032
0.134765
0.0617155
0.0496813
0.0451522
0.0441711
0.044503
0.0454067
0.0458158
0.0451195
0.0434703
0.0411265
0.0400117
0.0419502
0.0446051
0.0457405
0.0455285
0.0447283
0.0439031
0.0438972
0.0452405
0.0500819
0.0632847
0.139788
0.215971
0.213097
0.134369
0.0614221
0.0500569
0.0451928
0.0437733
0.0439131
0.0446215
0.0447935
0.0439914
0.0424308
0.0402068
0.0391226
0.0409641
0.0434767
0.0446189
0.0446119
0.0440308
0.0433381
0.0435063
0.0451435
0.0504322
0.0629544
0.137412
0.216876
0.215272
0.132481
0.0610259
0.0504394
0.0454406
0.043466
0.0433645
0.0438488
0.0438302
0.0429615
0.0414456
0.0393261
0.0383147
0.040078
0.0425286
0.0436656
0.0437747
0.0433372
0.042821
0.0431504
0.0453557
0.0509285
0.0627312
0.137784
0.217741
0.215665
0.132698
0.0608656
0.0512356
0.0459059
0.0432849
0.0428884
0.0431194
0.0429303
0.0420298
0.0405812
0.0385612
0.0375783
0.0392538
0.0415847
0.0427249
0.0429535
0.0426921
0.042352
0.0429229
0.0457487
0.0516731
0.0622723
0.13634
0.219181
0.215646
0.135316
0.0607523
0.0520175
0.0465367
0.043325
0.0424371
0.0424405
0.0421085
0.0412055
0.0398097
0.0378417
0.0369059
0.0384875
0.0407573
0.0418884
0.0421775
0.0420928
0.0419125
0.0429331
0.0463939
0.0524506
0.0618134
0.137425
0.219184
0.216031
0.135373
0.0602198
0.0522325
0.0473828
0.0435783
0.0421085
0.0418308
0.0413214
0.040392
0.0390482
0.0371811
0.0362964
0.0378249
0.0400091
0.041114
0.0414731
0.0415549
0.0415803
0.0431312
0.0472883
0.0527866
0.0613839
0.140628
0.218786
0.215156
0.137398
0.059714
0.0522364
0.0484498
0.0440094
0.0419369
0.0413073
0.0406353
0.0396926
0.0383957
0.0365778
0.0357318
0.0371689
0.0393049
0.0403942
0.0408146
0.0411
0.0414399
0.0435549
0.0482506
0.0526785
0.0608907
0.142007
0.218663
0.214656
0.139936
0.0595155
0.05213
0.0498832
0.0446716
0.0419653
0.0409328
0.0400367
0.0390442
0.03778
0.0360275
0.0352146
0.0365761
0.0386275
0.0397253
0.0402454
0.040767
0.041519
0.0441915
0.0498899
0.052578
0.0605383
0.144218
0.217447
0.214815
0.141702
0.0592088
0.0517068
0.050585
0.045515
0.0421272
0.0407632
0.0395433
0.0384562
0.037201
0.0354934
0.0347313
0.0360396
0.0380639
0.0391557
0.0397877
0.0406003
0.0417063
0.0451593
0.0510355
0.0524027
0.0610489
0.14677
0.216744
0.214077
0.143982
0.0591791
0.0511603
0.0505845
0.0468511
0.0425161
0.0407514
0.039204
0.0379516
0.0366824
0.0350175
0.0342852
0.0355286
0.0374912
0.0386201
0.0394323
0.0406113
0.0420968
0.0463913
0.0510808
0.0518414
0.0608964
0.14864
0.216625
0.213548
0.14636
0.0602084
0.0506478
0.0502155
0.0485988
0.0432359
0.0408238
0.0390481
0.0375756
0.0362371
0.0345711
0.0338692
0.0350542
0.036987
0.0381899
0.0392465
0.0407397
0.0428863
0.0483858
0.050748
0.0512642
0.0613162
0.150841
0.215936
0.21332
0.148403
0.0602147
0.0501073
0.0496167
0.0495259
0.0445261
0.0410906
0.0389921
0.037326
0.0358494
0.0341745
0.0334975
0.0346529
0.0366003
0.0379052
0.0391965
0.041047
0.0443925
0.0496094
0.0501757
0.0508996
0.0626097
0.153056
0.215432
0.21241
0.15028
0.0614388
0.0498151
0.0489442
0.0492203
0.0467014
0.0417982
0.0390769
0.0372492
0.035617
0.0338777
0.0331867
0.0343239
0.036327
0.0377894
0.0392462
0.0417254
0.0465476
0.0493718
0.0494833
0.0504603
0.063184
0.154944
0.21505
0.211351
0.152154
0.0630724
0.0497518
0.0483612
0.0487295
0.0479648
0.0434375
0.0393233
0.0372161
0.0355198
0.0337056
0.0329217
0.0341264
0.0361914
0.0377536
0.0394526
0.0433273
0.0480255
0.0488707
0.0488468
0.0502252
0.0640298
0.156715
0.214012
0.209354
0.153294
0.0637745
0.0496567
0.0478763
0.0480883
0.0477031
0.0457168
0.040126
0.0372698
0.0354808
0.0336368
0.0327886
0.0340522
0.0361566
0.0378224
0.0402527
0.0457523
0.0478869
0.0481871
0.0483344
0.0502807
0.0656392
0.158033
0.21171
0.205921
0.153369
0.0647472
0.0497389
0.0474835
0.0473709
0.0472603
0.0472603
0.0418988
0.0375741
0.0355261
0.0336299
0.0327789
0.0340354
0.0361733
0.0380851
0.0419358
0.0475275
0.0474656
0.0474307
0.0478713
0.0502871
0.0661692
0.158168
0.208386
0.197003
0.150162
0.0655599
0.0498456
0.0471822
0.0467691
0.0467217
0.0470893
0.0445116
0.0386934
0.0357371
0.0336724
0.0327969
0.0340649
0.0363316
0.0390763
0.0445751
0.0474937
0.0469145
0.0468113
0.0475095
0.0502827
0.0664584
0.154876
0.199481
0.389022
1.58809
2.11504
2.08603
1.87117
1.65188
1.46711
1.30909
1.15975
1.01013
0.863073
0.727767
0.614486
0.530959
0.473381
0.434767
0.40716
0.386358
0.368232
0.353399
0.338311
0.323545
0.307197
0.28954
0.269734
0.247399
0.220407
0.186118
0.141433
0.105335
0.37416
1.67008
2.17488
2.11212
1.88552
1.66624
1.4841
1.32934
1.18414
1.03968
0.896233
0.762371
0.645985
0.556066
0.490999
0.445315
0.41261
0.387684
0.368377
0.351117
0.335437
0.319389
0.302929
0.284966
0.265149
0.242576
0.215885
0.181599
0.138139
0.103944
0.400602
1.83425
2.24122
2.14463
1.9096
1.69075
1.51158
1.36013
1.21829
1.07614
0.934366
0.799626
0.679263
0.581294
0.507479
0.454402
0.416116
0.3878
0.365946
0.347053
0.330491
0.314087
0.297425
0.279632
0.260009
0.237701
0.211087
0.17679
0.134768
0.102532
0.42171
1.91733
2.30891
2.19704
1.95469
1.73375
1.55514
1.4054
1.26624
1.12677
0.986232
0.849392
0.722929
0.615218
0.531019
0.469069
0.424373
0.391044
0.365826
0.344785
0.32708
0.310192
0.293466
0.275583
0.255913
0.233751
0.206829
0.172798
0.131768
0.101405
0.42979
1.98847
2.38778
2.26586
2.01564
1.7915
1.61196
1.46452
1.32804
1.19122
1.05083
0.91118
0.777817
0.65972
0.563746
0.490727
0.436938
0.397652
0.368103
0.344381
0.324903
0.307289
0.290339
0.272241
0.252569
0.230213
0.203261
0.169234
0.12934
0.100375
0.437519
2.06759
2.47505
2.34468
2.08632
1.85726
1.67797
1.533
1.39953
1.26481
1.12456
0.982332
0.842975
0.715335
0.607074
0.521091
0.456807
0.409011
0.373282
0.345818
0.324337
0.305532
0.287857
0.269403
0.249468
0.227007
0.199925
0.166018
0.127168
0.0995783
0.447113
2.15118
2.56843
2.43309
2.16557
1.93213
1.75335
1.61031
1.47923
1.3462
1.20635
1.06253
0.918704
0.782258
0.661467
0.561907
0.484892
0.425831
0.381846
0.350031
0.325457
0.304769
0.286087
0.267224
0.246768
0.223943
0.196545
0.162874
0.12513
0.0988656
0.457653
2.23784
2.6686
2.53209
2.25556
2.01641
1.83749
1.69575
1.56661
1.43532
1.29644
1.15228
1.005
0.86102
0.728137
0.614883
0.522106
0.449416
0.396212
0.357537
0.328703
0.305383
0.285361
0.265627
0.244395
0.221068
0.193401
0.159971
0.123331
0.0982684
0.468244
2.32527
2.77676
2.64143
2.35752
2.11143
1.93085
1.78987
1.66275
1.53368
1.39686
1.25245
1.10227
0.951522
0.809869
0.679552
0.570618
0.483236
0.416921
0.369358
0.334719
0.307688
0.285335
0.264256
0.242249
0.218398
0.19062
0.157431
0.121914
0.0978238
0.477553
2.41339
2.89135
2.76063
2.47142
2.21799
2.03465
1.89431
1.76893
1.64205
1.50718
1.36306
1.2108
1.05524
0.904041
0.759877
0.633505
0.528132
0.446434
0.387253
0.344355
0.312333
0.286491
0.263636
0.240624
0.216126
0.188087
0.15523
0.120812
0.097534
0.48619
2.50007
3.01136
2.8884
2.59554
2.33449
2.14794
2.00805
1.88384
1.75913
1.62655
1.48321
1.3301
1.17034
1.01009
0.85403
0.710056
0.585898
0.486946
0.413179
0.359069
0.319546
0.289379
0.264083
0.239674
0.214386
0.186186
0.153505
0.119707
0.0972559
0.494429
2.58728
3.13552
3.02221
2.72672
2.45998
2.27027
2.13006
2.00697
1.88422
1.75393
1.61186
1.45835
1.2952
1.12787
0.960862
0.801014
0.658665
0.54041
0.448488
0.379841
0.330372
0.294359
0.265798
0.239686
0.213367
0.18477
0.152018
0.118848
0.097107
0.503233
2.67682
3.26157
3.15912
2.86241
2.59256
2.40054
2.25941
2.13674
2.01596
1.88826
1.74788
1.59434
1.42859
1.25588
1.08008
0.906837
0.746846
0.607865
0.494737
0.408205
0.34605
0.302254
0.269271
0.240854
0.213236
0.183709
0.150969
0.118197
0.097043
0.510937
2.76883
3.3861
3.29637
3.00113
2.73088
2.53814
2.39517
2.27178
2.15301
2.02832
1.89014
1.73728
1.57096
1.39409
1.21087
1.02693
0.850012
0.689891
0.55361
0.446155
0.368088
0.314057
0.275048
0.243495
0.214318
0.183349
0.150298
0.117702
0.0970979
0.51824
2.85859
3.50563
3.43133
3.14195
2.87405
2.68139
2.53583
2.41083
2.29415
2.17256
2.03749
1.88689
1.72103
1.54188
1.35332
1.1597
0.96757
0.786867
0.62686
0.496066
0.398577
0.331272
0.283949
0.247951
0.215954
0.183622
0.15002
0.117354
0.0972556
0.52381
2.94027
3.61872
3.56186
3.28381
3.02155
2.82867
2.67961
2.55383
2.43873
2.32071
2.18993
2.04299
1.87837
1.69819
1.50598
1.30395
1.09888
0.89945
0.716247
0.560489
0.439999
0.355351
0.296695
0.254203
0.21895
0.18469
0.150198
0.117213
0.0975543
0.530132
3.01123
3.72358
3.68522
3.42374
3.17069
2.97937
2.82594
2.69934
2.58695
2.47331
2.34816
2.20446
2.04153
1.86183
1.66593
1.45703
1.24134
1.02616
0.822149
0.64095
0.494431
0.387919
0.314563
0.263599
0.223439
0.18663
0.150818
0.117271
0.0979558
0.535365
3.0716
3.81588
3.7999
3.55896
3.31983
3.13087
2.97417
2.84851
2.74035
2.63133
2.51143
2.37048
2.20987
2.03034
1.83069
1.61635
1.392
1.16405
0.94232
0.737298
0.563257
0.430786
0.338665
0.276219
0.229718
0.189582
0.151622
0.117607
0.0983441
0.539489
3.11581
3.8885
3.90033
3.68558
3.46575
3.28164
3.12596
3.00295
2.89925
2.79482
2.67836
2.54028
2.38216
2.20241
2.00002
1.78103
1.54926
1.31076
1.07304
0.847656
0.646564
0.485305
0.3703
0.292971
0.238223
0.193462
0.153071
0.11803
0.0987912
0.541257
3.14403
3.9345
3.97868
3.79717
3.60425
3.43142
3.28043
3.16185
3.06314
2.96327
2.84917
2.71389
2.55823
2.37851
2.17402
1.95102
1.71259
1.46487
1.21319
0.969502
0.743712
0.552506
0.410797
0.314681
0.249021
0.198402
0.154962
0.118335
0.099366
0.543692
3.14834
3.94743
4.02519
3.88661
3.73054
3.57852
3.43729
3.32565
3.23275
3.13713
3.02533
2.89273
2.73911
2.55971
2.35348
2.12651
1.88194
1.62588
1.36286
1.10171
0.853483
0.632993
0.461734
0.342526
0.262476
0.204462
0.15726
0.118705
0.0998083
0.544278
3.13052
3.91454
4.02637
3.94555
3.83978
3.71974
3.5953
3.49395
3.40804
3.31663
3.2077
3.0788
2.92655
2.74748
2.53942
2.30813
2.05752
1.79362
1.52016
1.24291
0.97428
0.727838
0.525238
0.378315
0.280171
0.21249
0.160372
0.119244
0.10013
0.546466
3.05934
3.8049
3.95892
3.96181
3.92538
3.85112
3.75219
3.66551
3.58842
3.50245
3.39832
3.2729
3.12223
2.94304
2.73253
2.49626
2.23916
1.96679
1.68277
1.39201
1.10457
0.836434
0.603399
0.424722
0.304018
0.223785
0.164856
0.120276
0.100577
0.542756
2.87121
3.54273
3.78834
3.92165
3.97932
3.96649
3.90377
3.83785
3.77277
3.69426
3.59703
3.47611
3.32677
3.14627
2.93266
2.69081
2.4265
2.14487
1.84989
1.54791
1.24604
0.95731
0.696266
0.483469
0.334588
0.238248
0.170768
0.121943
0.101124
0.528985
2.26601
2.92683
3.42758
3.78864
3.98586
4.05583
4.0434
4.00707
3.95914
3.89119
3.80279
3.68731
3.53917
3.356
3.13824
2.88976
2.61754
2.32629
2.02171
1.70927
1.39435
1.08732
0.800249
0.553771
0.372582
0.256239
0.178032
0.124005
0.101648
0.105143
0.140988
0.185895
0.22062
0.247673
0.270722
0.290665
0.30843
0.324891
0.339808
0.354164
0.369402
0.387781
0.408404
0.435418
0.473828
0.531059
0.615011
0.728193
0.863521
1.01199
1.16237
1.31213
1.47095
1.66013
1.88556
2.10533
2.13256
1.59708
0.390305
0.103698
0.137556
0.181077
0.216091
0.24332
0.266162
0.286386
0.30436
0.320987
0.337004
0.352636
0.369928
0.389584
0.414078
0.445983
0.490752
0.554371
0.643778
0.759577
0.893422
1.03783
1.18313
1.32919
1.48508
1.67138
1.89744
2.12988
2.19152
1.67874
0.375384
0.102024
0.134145
0.176509
0.211068
0.23846
0.26106
0.281191
0.298952
0.315393
0.331894
0.348515
0.366938
0.388324
0.416621
0.454143
0.506341
0.578249
0.674352
0.793805
0.927971
1.07088
1.21372
1.35681
1.50975
1.69303
1.91912
2.16095
2.25743
1.84201
0.401515
0.100985
0.131534
0.172656
0.206857
0.234191
0.257112
0.27688
0.295016
0.311683
0.328699
0.346344
0.366433
0.390969
0.423251
0.467513
0.528528
0.610827
0.716296
0.841026
0.976622
1.11734
1.25812
1.39826
1.54985
1.73299
1.96203
2.21163
2.32332
1.92348
0.422715
0.100022
0.129219
0.169257
0.203392
0.230739
0.253928
0.273577
0.291535
0.309026
0.326912
0.346071
0.368697
0.397193
0.435334
0.487929
0.559134
0.652739
0.768842
0.900272
1.03896
1.17883
1.31651
1.45439
1.60406
1.78777
2.02037
2.27895
2.40058
1.99299
0.430445
0.0992337
0.127158
0.166238
0.200326
0.228023
0.250946
0.270991
0.28922
0.307321
0.32628
0.34781
0.374
0.407831
0.454132
0.517296
0.600367
0.705928
0.831722
0.969893
1.11147
1.25111
1.38621
1.52077
1.66824
1.85167
2.0885
2.35595
2.48649
2.07105
0.437661
0.0985388
0.12528
0.163349
0.197228
0.225255
0.248253
0.26871
0.287611
0.306447
0.327185
0.351541
0.382585
0.424091
0.480659
0.556631
0.653775
0.771613
0.906286
1.04956
1.19303
1.3322
1.46522
1.59677
1.7418
1.92462
2.16753
2.44286
2.57932
2.15444
0.447825
0.097957
0.123782
0.160899
0.194408
0.222315
0.246121
0.26698
0.286701
0.306909
0.330051
0.358614
0.396241
0.447564
0.516614
0.606033
0.719796
0.850144
0.992705
1.13923
1.28343
1.42179
1.55276
1.68206
1.82544
2.00778
2.25646
2.54168
2.67946
2.24072
0.457869
0.0975409
0.12254
0.158695
0.192131
0.219875
0.244323
0.265841
0.286664
0.309011
0.335597
0.369881
0.416095
0.47953
0.564198
0.670142
0.798186
0.940338
1.08979
1.23884
1.38288
1.51959
1.64853
1.77619
1.91855
2.10187
2.35642
2.64986
2.78727
2.32848
0.468858
0.0972772
0.121521
0.156833
0.189935
0.218108
0.242757
0.265458
0.287987
0.313309
0.344878
0.387123
0.444515
0.523246
0.625593
0.749419
0.890676
1.04302
1.19825
1.34947
1.49312
1.62797
1.75478
1.88051
2.02207
2.20715
2.46841
2.76823
2.90159
2.41606
0.478398
0.0970648
0.120574
0.155148
0.188007
0.216866
0.241946
0.266004
0.290904
0.320388
0.358908
0.411888
0.483687
0.579849
0.701363
0.843083
0.997695
1.15857
1.31838
1.47074
1.61294
1.74518
1.86938
1.99382
2.13502
2.32306
2.59145
2.89504
3.021
2.50325
0.486977
0.0968661
0.119704
0.153693
0.186689
0.215846
0.2421
0.267826
0.296055
0.331039
0.37892
0.445838
0.535799
0.651782
0.792078
0.950558
1.11762
1.2855
1.44852
1.60139
1.74179
1.87099
1.99241
2.11548
2.2568
2.44771
2.72279
3.02868
3.14479
2.59118
0.496025
0.0967997
0.119081
0.152664
0.185795
0.2156
0.243307
0.271337
0.303797
0.346519
0.406556
0.490667
0.601958
0.739479
0.89815
1.07107
1.24791
1.42212
1.58772
1.7405
1.87879
2.00438
2.12281
2.24454
2.38677
2.58081
2.85933
3.16703
3.27169
2.68073
0.504772
0.0968619
0.118667
0.152019
0.185481
0.216182
0.245821
0.276927
0.315004
0.367806
0.443327
0.547996
0.682766
0.842063
1.01841
1.203
1.38733
1.56587
1.73333
1.88561
2.02186
2.14394
2.25935
2.38008
2.52319
2.71992
2.99879
3.30537
3.39819
2.774
0.512879
0.0971094
0.118556
0.151932
0.185907
0.217759
0.249844
0.285094
0.330882
0.39646
0.490909
0.619018
0.777839
0.95823
1.15058
1.34554
1.53576
1.71665
1.88385
2.03462
2.16858
2.2876
2.4008
2.52157
2.66662
2.8633
3.13969
3.44098
3.51933
2.86642
0.520701
0.0973567
0.118426
0.152027
0.187028
0.220579
0.255563
0.296608
0.352613
0.434646
0.551498
0.705066
0.887302
1.08682
1.29293
1.49683
1.6921
1.87341
2.03945
2.18723
2.31738
2.43346
2.54553
2.66745
2.81525
3.01077
3.28152
3.57185
3.63396
2.95096
0.526783
0.0976588
0.118355
0.152389
0.188618
0.224643
0.263538
0.312089
0.381694
0.484248
0.626773
0.806187
1.01009
1.22573
1.44315
1.65436
1.85363
2.03532
2.19851
2.34354
2.46899
2.5817
2.69222
2.81544
2.96729
3.16077
3.42182
3.69497
3.74026
3.02483
0.53339
0.0979885
0.118291
0.153
0.190905
0.229955
0.274123
0.332926
0.419814
0.546884
0.716966
0.920664
1.14323
1.37244
1.59872
1.81564
2.01791
2.20002
2.36051
2.5031
2.62488
2.73384
2.8408
2.96404
3.11963
3.31126
3.55734
3.80897
3.83487
3.08873
0.539333
0.0983152
0.118158
0.153799
0.193859
0.236704
0.288102
0.360229
0.468392
0.622941
0.820433
1.04534
1.28383
1.52454
1.75827
1.97988
2.18473
2.36706
2.5254
2.6652
2.78505
2.89057
2.99393
3.11548
3.27138
3.45865
3.68446
3.9097
3.91002
3.13668
0.543919
0.0986199
0.118211
0.155079
0.197534
0.245261
0.306209
0.395126
0.528359
0.711975
0.934695
1.17781
1.43047
1.68097
1.92181
2.14796
2.35534
2.53724
2.69412
2.83104
2.94985
3.05245
3.15171
3.26952
3.42168
3.59855
3.79793
3.98969
3.95889
3.16838
0.546201
0.0990384
0.118729
0.156903
0.202581
0.256431
0.329485
0.439193
0.600122
0.812674
1.05782
1.31809
1.58275
1.84186
2.08958
2.32056
2.53068
2.71242
2.86849
3.00264
3.11989
3.21987
3.31458
3.42629
3.56923
3.72631
3.8898
4.03903
3.9745
3.1762
0.549169
0.0996993
0.119444
0.159955
0.209984
0.271591
0.35974
0.494218
0.68474
0.923915
1.18866
1.4652
1.74085
2.00827
2.26271
2.499
2.71243
2.89465
3.05033
3.18153
3.29565
3.39336
3.48265
3.58444
3.71095
3.83764
3.95191
4.04367
3.9434
3.16058
0.55026
0.100211
0.120753
0.164199
0.219707
0.291816
0.398923
0.561983
0.782385
1.04401
1.32617
1.61676
1.90351
2.18006
2.44216
2.68456
2.90176
3.08531
3.24063
3.36932
3.47893
3.5724
3.65377
3.74177
3.84362
3.92557
3.97059
3.9785
3.83533
3.09013
0.552785
0.100718
0.122346
0.169271
0.231688
0.317161
0.448169
0.643004
0.892045
1.17393
1.47176
1.77414
2.07133
2.35745
2.62815
2.87759
3.09953
3.28551
3.44051
3.56564
3.66927
3.75582
3.8264
3.89456
3.96102
3.98233
3.9332
3.81035
3.57486
2.90119
0.54934
0.101176
0.124075
0.175183
0.246252
0.348313
0.507763
0.735521
1.01122
1.31164
1.62454
1.93846
2.24608
2.54225
2.82189
3.07876
3.30607
3.49546
3.64989
3.77071
3.86585
3.94224
3.99685
4.03629
4.05335
3.9927
3.80688
3.45458
2.96358
2.29036
0.535734
0.48275
0.492882
0.504389
0.517495
0.531486
0.546093
0.561156
0.576435
0.591844
0.607228
0.622429
0.637316
0.651785
0.665766
0.679222
0.692136
0.704515
0.716446
0.728307
0.740009
0.751448
0.762462
0.772791
0.782772
0.792768
0.802444
0.811492
0.81991
0.827918
0.835516
0.842702
0.849462
0.855781
0.86165
0.86707
0.872046
0.876593
0.880722
0.884401
0.887759
0.891212
0.894237
0.896881
0.898882
0.900201
0.900756
0.900405
0.899091
0.897123
0.894228
0.890321
0.885341
0.879371
0.872545
0.864749
0.855929
0.846064
0.835209
0.82342
0.810673
0.796932
0.782176
0.766427
0.749706
0.732018
0.713374
0.693859
0.674042
0.654167
0.634155
0.614082
0.593989
0.573926
0.553948
0.534121
0.514491
0.495087
0.475976
0.457187
0.438712
0.420579
0.402928
0.385952
0.369775
0.354271
0.339227
0.324601
0.310414
0.296673
0.283334
0.270323
0.257585
0.245054
0.2327
0.220539
0.20854
0.196754
0.185284
0.17422
0.163646
0.15371
0.144555
0.136319
0.129094
0.122911
0.117776
0.113708
0.110575
0.108234
0.106543
0.105355
0.104592
0.104124
0.103824
0.103669
0.103627
0.103639
0.10365
0.103572
0.103411
0.10314
0.102799
0.10244
0.102074
0.101653
4.83166
4.86298
4.92544
5.01652
5.12071
5.23388
5.35267
5.47656
5.6044
5.73537
5.86792
6.00065
6.13238
6.26199
6.38868
6.51186
6.63098
6.74438
6.8506
6.9503
7.04371
7.13145
7.21472
7.29425
7.36915
7.43913
7.50447
7.56622
7.62441
7.67914
7.7305
7.77851
7.82327
7.86487
7.90345
7.93907
7.97166
8.00099
8.02663
8.0481
8.06475
8.0761
8.08248
8.08398
8.0804
8.07156
8.05723
8.0367
8.00797
7.97261
7.93
7.87959
7.82051
7.75515
7.68245
7.60199
7.51347
7.41669
7.31233
7.19989
7.07903
6.9496
6.81169
6.66527
6.50983
6.34432
6.16642
5.96891
5.75176
5.52554
5.29753
5.06845
4.83975
4.61224
4.38705
4.16533
3.94795
3.73624
3.53166
3.33517
3.1494
2.9785
2.8238
2.68364
2.55361
2.43244
2.32067
2.21778
2.12363
2.03734
1.95632
1.87838
1.80131
1.72337
1.64342
1.56013
1.47316
1.38258
1.28851
1.19138
1.09228
0.99278
0.894196
0.798781
0.707225
0.62167
0.543655
0.47305
0.410694
0.35626
0.309788
0.270756
0.23858
0.212817
0.192381
0.176285
0.163953
0.155108
0.148838
0.143819
0.139168
0.134843
0.131213
0.128295
0.125996
8.49646
8.57067
8.68821
8.8395
9.00988
9.19218
9.38215
9.57741
9.77569
9.97479
10.1724
10.3665
10.5555
10.7382
10.9139
11.082
11.2421
11.3931
11.5337
11.6654
11.7883
11.9031
12.0109
12.1114
12.2041
12.2893
12.3674
12.4394
12.5055
12.5661
12.6213
12.6711
12.7159
12.7558
12.7911
12.8218
12.848
12.8695
12.8858
12.8968
12.9017
12.8998
12.891
12.8751
12.8517
12.8206
12.7813
12.7331
12.6748
12.6069
12.529
12.4407
12.3413
12.2312
12.1112
11.9804
11.8381
11.684
11.5193
11.3433
11.1555
10.9559
10.7443
10.5212
10.2861
10.0388
9.77883
9.50584
9.21993
8.92073
8.60852
8.28901
7.96701
7.64418
7.32302
7.00473
6.69052
6.38181
6.08034
5.78765
5.50552
5.23639
4.98172
4.74203
4.5154
4.30121
4.0994
3.90895
3.72858
3.55701
3.39302
3.23509
3.08164
2.93126
2.78301
2.63608
2.49039
2.34606
2.20311
2.06165
1.92207
1.78512
1.65096
1.52045
1.39293
1.26955
1.15131
1.03781
0.929783
0.827018
0.730909
0.642728
0.563488
0.49377
0.43326
0.381452
0.338124
0.303271
0.275525
0.252619
0.232665
0.215441
0.20149
0.190555
0.182119
11.1264
11.2319
11.389
11.5798
11.7903
12.0123
12.2407
12.4718
12.7026
12.9302
13.152
13.3659
13.5706
13.7654
13.9498
14.1238
14.2872
14.4398
14.5801
14.7102
14.831
14.9432
15.0469
15.1416
15.2273
15.3049
15.375
15.4383
15.495
15.5455
15.5899
15.6287
15.6621
15.6902
15.7134
15.7317
15.7452
15.7534
15.7562
15.7529
15.743
15.7259
15.7014
15.6693
15.6295
15.5813
15.5245
15.4581
15.3818
15.2955
15.199
15.0922
14.9744
14.8454
14.7058
14.5551
14.3924
14.2161
14.0281
13.8287
13.6168
13.3922
13.1547
12.9051
12.643
12.3682
12.081
11.7819
11.471
11.1485
10.815
10.4708
10.1162
9.75619
9.3954
9.03483
8.6768
8.32303
7.97527
7.63522
7.30462
6.985
6.67759
6.3831
6.10128
5.83149
5.57356
5.32671
5.09019
4.86302
4.64438
4.43323
4.22833
4.029
3.8344
3.64424
3.45833
3.27653
3.0987
2.92479
2.75483
2.58908
2.42732
2.26965
2.11527
1.96482
1.81866
1.67612
1.53741
1.40208
1.27069
1.14502
1.02621
0.914366
0.810735
0.715997
0.631719
0.558387
0.495327
0.440696
0.391507
0.348685
0.313644
0.285909
0.263847
13.1991
13.3208
13.4975
13.7052
13.9315
14.1677
14.4079
14.6479
14.8839
15.113