/*--------------------------------*- C++ -*----------------------------------*\
| =========                 |                                                 |
| \\      /  F ield         | OpenFOAM: The Open Source CFD Toolbox           |
|  \\    /   O peration     | Version:  2112                                  |
|   \\  /    A nd           | Website:  www.openfoam.com                      |
|    \\/     M anipulation  |                                                 |
\*---------------------------------------------------------------------------*/
FoamFile
{
    version     2.0;
    format      ascii;
    arch        "LSB;label=32;scalar=64";
    class       volScalarField;
    location    "0.01054";
    object      T;
}
// * * * * * * * * * * * * * * * * * * * * * * * * * * * * * * * * * * * * * //

dimensions      [0 0 0 1 0 0 0];

internalField   nonuniform List<scalar> 
13875
(
1412.01
1535.58
1482.39
1487.76
1481.98
1484.13
1484.11
1483.96
1484.41
1484.33
1484.15
1484.18
1483.63
1483.94
1483.84
1483.86
1483.43
1484.73
1484.88
1483.12
1481.88
1487.7
1480.55
1533.17
1398.7
1307.03
1356.18
1318.91
1322.15
1316.57
1318.87
1322.19
1323
1323.54
1323.41
1323.23
1323.31
1318.18
1317.69
1318.36
1322.76
1322.95
1323.48
1322.32
1317.82
1316.7
1321.89
1319.58
1356.62
1303.71
1307.24
1340.06
1314.27
1311.82
1305.29
1305.95
1305.88
1305.86
1305.8
1304.56
1304.65
1306.05
1303.88
1304.06
1303.91
1305.78
1303.89
1305.95
1306.03
1305.08
1304.86
1311.04
1311.37
1336.2
1296.47
1317.37
1344.78
1314.62
1308.66
1306.05
1305.97
1305.08
1304.15
1303.83
1303.1
1302.69
1303.51
1303.96
1304.1
1304.05
1303.46
1302.43
1303.5
1304.21
1305.48
1305.35
1307.7
1313.94
1343.47
1311.4
1329.52
1342.1
1315.68
1312.39
1305
1306.02
1305.77
1304.16
1303.88
1303.25
1302.74
1303.41
1303.87
1304.24
1303.83
1303.3
1302.52
1304
1305.2
1304.87
1304.75
1311.76
1311.96
1338.41
1316.11
1332.2
1351.13
1318.8
1309.84
1308.08
1306.9
1305.2
1304.45
1303.78
1303.46
1302.91
1303.56
1304.15
1304.52
1304.31
1303.56
1302.64
1303.56
1304.27
1306.56
1307.27
1308.42
1318.98
1349.16
1326.86
1338.98
1360.46
1328.98
1317.47
1308.12
1307.58
1306.62
1304.36
1304.37
1303.95
1303.38
1303.6
1304.32
1304.84
1304.25
1303.58
1303.17
1304.59
1306.19
1306.48
1307.79
1317.6
1325.62
1358.19
1321.95
1359.71
1384.68
1344.04
1321.12
1316.71
1310.44
1306.7
1305.02
1305.06
1304.68
1303.94
1304.15
1305.03
1305.52
1305.22
1304.19
1303.76
1304.96
1306.16
1310
1315.31
1320.38
1341.47
1381.05
1350.4
1537.19
1508.35
1387.06
1350.41
1322.01
1315.83
1310.83
1306.71
1306.84
1306.35
1305.39
1305.3
1306.19
1306.87
1306.33
1305.65
1305.63
1307.26
1310.53
1314.19
1321.31
1349.2
1382.71
1505.65
1520.8
1834.85
1574.38
1427.07
1358.41
1338.41
1320.83
1313.8
1310.4
1309.81
1309.17
1308.07
1307.94
1308.81
1309.55
1309.18
1308.58
1308.85
1310.96
1314.09
1320.58
1337.06
1357.2
1424.83
1566.57
1826.35
2507.09
1804.14
1517.28
1406.79
1349.89
1331.56
1325.39
1317.53
1316.39
1315.08
1313.5
1313.22
1313.95
1314.85
1314.71
1314.62
1315.18
1317.73
1326.15
1330.05
1348.69
1419.43
1502.14
1797.76
2429.69
2812.09
2301.08
1735.18
1462.99
1425.86
1360.93
1339.54
1331.07
1329.15
1326.97
1325.12
1324.81
1325.28
1326.21
1326.31
1326.91
1328.21
1331.78
1339.77
1371.55
1405.5
1457.26
1731.29
2306.13
2837.62
2786.33
2654.46
2352.04
2206.92
1524.36
1414.67
1395.72
1372.51
1364.08
1357.43
1353.83
1353
1352.94
1353.84
1354.69
1357.56
1363.62
1374.94
1399.58
1421.8
1567.47
2234.84
2245.76
2687.12
2766.67
2722.56
2660.26
2744.45
2784.55
2051.48
1830.8
1521.05
1476.14
1459.21
1447.17
1442.33
1441.2
1440.98
1441.86
1443.16
1447.68
1458.81
1478.88
1541.79
1923.43
2101.39
2803.33
2792.62
2702.89
2701.48
2581.69
2638.3
2686.65
2687.86
2590.31
2367
2018.95
1965.51
1865.68
1765.65
1730.65
1719.8
1716.24
1717.84
1724.5
1748.52
1840.24
1961.76
1983.92
2421.49
2637.57
2735.76
2678.43
2652.24
2625.71
2499.54
2536
2629.46
2685.58
2658.09
2686.13
2873.32
2940.84
2934.58
3034.28
3113.66
3136.06
3145.89
3139.82
3122.38
3055.6
2903.65
2939.13
2899.81
2717.65
2661.18
2706.55
2624.49
2557.8
2533.12
2313.15
2397.88
2477.81
2531.07
2604.53
2729.52
3033.22
3410.37
3593.21
3684.43
3698.33
3691.47
3688.76
3691.66
3700.52
3701.36
3598.06
3418.6
3054.42
2739.74
2615.82
2564.8
2469.89
2404.38
2328.87
2024.09
2146.98
2302.97
2617.36
2791.51
2829.07
2959.45
3313.92
3529.5
3643.18
3672.89
3672.52
3671.94
3673.85
3674.84
3646.27
3501.51
3290.88
2962.71
2840.03
2807.98
2564.25
2269.88
2139.51
2023.92
1812.56
1879.25
2009.98
2242.03
2718.29
2838.85
2878.9
3105.63
3358.69
3499.88
3545.1
3556.35
3560.8
3559.84
3549.9
3510.89
3360.86
3119.94
2918.93
2926.86
2677.21
2204.06
2007.27
1884.52
1814.44
2462.13
2349.27
2106.31
2195.39
2507.92
2689
2698.69
2842.5
3080.67
3278.34
3388.34
3432.58
3441.43
3435.07
3391.87
3278.34
3068.22
2851.5
2729.98
2715.31
2483.93
2222.59
2140.18
2347.55
2452.5
3250.67
3426.26
2749.72
2299.74
2376.16
2531.63
2548.59
2660.18
2885.31
3110.14
3251.46
3305.57
3316.67
3304.99
3245.77
3091.57
2855.75
2657.03
2559.71
2542.24
2358.89
2325.47
2811.62
3482.29
3259.22
3626.7
3574.7
2813.15
2209.84
2213.63
2368.26
2417.11
2523.09
2737.09
2963.06
3118.83
3182.19
3191.08
3177.13
3102.75
2931.83
2701.41
2521.26
2418.16
2369.77
2189.96
2247.67
2899.04
3621.43
3675.92
3495.58
3118.21
2489.35
2058.34
2061.21
2235.02
2308.47
2414.76
2607.99
2832.35
2988.94
3053.41
3066.98
3048.21
2974.36
2806
2583.09
2416.25
2299.31
2235.19
2036.23
2054.72
2475.96
3126.21
3531.32
3510.01
2961.88
2250.02
1904.88
1974.03
2137.52
2206.4
2316.62
2504.13
2715.12
2868.46
2935.48
2946.39
2930.09
2853.64
2689.35
2477.43
2318.78
2202
2130.71
1942.96
1893.06
2254.84
2980.89
3544.91
3445.39
2789.08
2098.54
1822.73
1927.52
2066.41
2118.34
2230.95
2408.04
2614.43
2757.05
2817.55
2831.95
2810.93
2739.91
2585.91
2382.7
2227.92
2118.63
2064.16
1896.98
1809.63
2112.8
2835.83
3482.1
3416.4
2748.19
2042.13
1827.44
1903.4
2000.31
2040.89
2149.7
2322.85
2511.82
2650.57
2711.94
2722.02
2707.16
2637.53
2489.78
2298.39
2149.61
2044.44
2001.41
1877.12
1818.49
2040.12
2765.49
3454.74
3343.63
2597.96
1964.35
1829.68
1880.48
1955.22
1976.63
2085.69
2247.32
2429.94
2552.35
2605.28
2619.93
2600.14
2539.27
2408.19
2227.38
2080.49
1978.24
1961.85
1859.52
1824.2
1971.58
2616.07
3366.62
3317.19
2564.81
1972.04
1863.99
1871.34
1907.67
1916.2
2024.59
2184.42
2347.55
2461.53
2513.57
2522.31
2509.41
2448.92
2323.83
2156.33
2019.56
1918.2
1914.02
1853.44
1851.4
1976.04
2609.99
3362.35
3305.57
2537.86
1941.74
1854.09
1840.56
1877.4
1868.72
1976.27
2119.13
2275.46
2374.01
2418.7
2433.16
2415.12
2366.16
2262.33
2106.38
1971.43
1871.55
1884.29
1832.78
1853.02
1935.22
2514.63
3282.89
3271.48
2544.68
1974.81
1886.83
1840.7
1852.31
1826.89
1929.78
2070.54
2207.18
2297.58
2341.22
2347.73
2337.67
2286.82
2188.59
2047.7
1926.77
1827.33
1866.21
1828.05
1872.31
1959.82
2523.23
3260.53
3185.91
2458.49
1946.84
1886.65
1803.42
1828.02
1794.25
1902.77
2023.17
2151.68
2224.53
2257.96
2270.42
2254.07
2215.41
2135.73
2005.57
1890.28
1793.86
1837.05
1805.43
1874.59
1940.34
2458.22
3221.99
3148.51
2449.42
1993.57
1911.64
1810.36
1806.3
1769.44
1864.47
1980.28
2089.8
2157.54
2192.83
2196.58
2191.16
2150.09
2076.15
1962.67
1865.47
1767.98
1819.58
1806.95
1891.59
1970.13
2422.94
3144.46
3092.94
2396.08
1993.55
1894.03
1782.48
1774.81
1742.62
1848.56
1943.16
2045.63
2097.37
2120.48
2131.2
2117.64
2089.86
2033.29
1927.5
1836.62
1743.19
1782.81
1790.38
1887.24
1966.67
2382.73
3076.68
3054.07
2373.4
2028.6
1915.51
1806.29
1761.56
1731.59
1823.78
1908.69
1993.46
2039.78
2067.9
2068.6
2066.47
2032.84
1979.83
1889.84
1819.42
1723.64
1771.14
1796.72
1900.33
2013.81
2368.12
3062.73
3020.55
2344.64
2018.72
1909.51
1786.84
1731.03
1700.04
1809.78
1875.62
1953.67
1988.85
2004.62
2014.06
2002.66
1984.29
1947.27
1861.63
1800.96
1698.77
1738.29
1796.34
1902.1
2011.45
2324.99
3036.72
3000.26
2335.78
2021.01
1923.82
1803.19
1735.19
1695.96
1789.47
1847.93
1908.7
1939.69
1962.74
1961.26
1961.44
1932.73
1896.96
1831.74
1789.05
1683.02
1730.32
1806.09
1920.77
2021.43
2343.99
3021.6
2953.59
2287.98
2009.99
1943.76
1795.21
1719.77
1671.63
1775.8
1819.23
1877.9
1898.26
1907.93
1915.65
1905.38
1893.56
1872.57
1801.04
1769.08
1663.65
1719.98
1793.85
1937.97
2001.6
2316.75
2984.53
2936.63
2297.39
2015.83
1979.47
1815.25
1731.49
1672.2
1759.39
1793.11
1835.58
1855.08
1874.33
1871.13
1873.75
1849.5
1826.2
1779.74
1762.59
1658.05
1723.1
1815.95
1973.58
2008.2
2288.16
2937.96
2899.74
2275.54
1995.81
1993.41
1813.53
1716.27
1655.98
1748.36
1764.6
1811.05
1821.87
1826.71
1832.92
1825.52
1818.14
1808.13
1744.64
1741.44
1650.32
1715.52
1810.05
1994.61
1977.31
2275.58
2887.72
2852.52
2268.85
1978.27
1995.35
1846.4
1748.72
1676.2
1739.72
1745
1772.3
1783.97
1800.24
1795.88
1800.26
1778.8
1764.33
1728.6
1737.26
1657.48
1735.05
1842.3
1990.73
1964.65
2258.24
2846.01
2826.24
2259.36
1947.02
1982.86
1881.66
1732.88
1663.98
1728.21
1717.59
1753.29
1756.96
1759.24
1763.52
1758.21
1754.99
1753.67
1694.55
1719.61
1667.44
1726.38
1872.57
1985.04
1935.08
2216.61
2832.23
2791.77
2252.66
1935.16
1974.56
1926.93
1768.72
1705.36
1733.77
1706.7
1719.39
1723.78
1737.82
1732.27
1737.99
1718.71
1716.43
1690.72
1726.13
1691.29
1763.35
1938.6
1980.35
1939.28
2266.88
2816.54
2762.53
2230.84
1915.44
1959.98
1929.6
1786.95
1705.33
1730.55
1683.92
1707.13
1702.97
1702.11
1704.76
1700.99
1700.98
1709.6
1657.76
1713.95
1700.21
1774.55
1934.24
1966.31
1926.23
2269.68
2781.1
2730.33
2228.59
1913.86
1927.37
1913.03
1835.39
1742.03
1750.13
1689.76
1681.11
1674.73
1685.27
1678.1
1685.41
1668.27
1682.38
1672.94
1735.11
1728.69
1828.65
1931.01
1948.51
1928.27
2233.64
2744.44
2710.15
2216.38
1903.69
1905.05
1903.18
1904.36
1761.12
1748.32
1676.29
1679.87
1660.84
1653.95
1655.51
1654.19
1658.93
1682.9
1652.84
1729.67
1754.74
1898.38
1916.44
1920.55
1908.28
2223.05
2722.95
2672.24
2198
1900.66
1882.44
1877.89
1890.52
1827.02
1771.49
1701.49
1667.84
1641.03
1643.7
1633.64
1643.4
1630.26
1664.8
1681.49
1758.33
1809.64
1897.9
1902.29
1899.23
1904.68
2202.24
2687.82
2654.89
2197.18
1893.26
1859.53
1851.26
1874.32
1905.62
1792.89
1689.6
1681.89
1643.95
1621.79
1615.51
1620.01
1642.76
1683.65
1664.79
1772.62
1884.63
1879.76
1869.04
1876.41
1888.54
2191.21
2663.62
2606.59
2174.7
1888.88
1852.57
1829.68
1863.37
1894.91
1851.89
1729.91
1673.07
1632.57
1628.66
1607.38
1628.04
1619.44
1673.31
1713.78
1828.77
1900.84
1867.08
1844.89
1862.69
1898.12
2184.4
2609.7
2565.45
2157.63
1874.01
1838.99
1803.9
1826.09
1876.58
1938.83
1732.65
1697.95
1648.15
1616.57
1607.48
1612.64
1646.69
1697.34
1712.27
1920.87
1880.67
1830.94
1821.44
1852.25
1883.4
2162.49
2569.06
2400.71
2109.9
1853.71
1826.59
1787.34
1796.65
1857
1921.97
1822.33
1710.4
1641.32
1631.62
1609.67
1630.78
1624.28
1707.74
1799.37
1928.93
1864.57
1803.41
1802.93
1843.91
1863.45
2104.78
2395.22
1086.74
1023.55
956.735
874.625
793.682
720.124
659.305
609.821
571.773
541.744
519.518
503.972
492.191
483.99
476.769
470.362
463.767
457.223
450.52
444.381
438.865
433.344
428.466
424.185
420.256
416.203
412.239
407.703
403.012
399.151
1086.83
1024.07
958.575
880.444
804.396
735.989
678.089
629.308
590.476
557.434
532.046
513.098
498.543
488.36
480.15
473.204
466.58
459.992
453.117
447.2
441.395
435.949
431.228
427.132
423.393
419.92
416.079
412.33
408.471
405.547
1086.73
1027.95
965.309
890.546
817.258
749.681
691.865
643.861
604.457
569.646
542.255
520.886
503.914
491.618
482.081
474.416
467.648
460.968
454.255
448.154
442.258
436.845
432.261
428.244
424.597
421.705
417.611
415.051
411.282
407.97
1095.5
1037.36
977.274
906.685
837.51
771.958
715.874
668.085
626.851
589.665
559.533
534.705
514.42
499.238
487.356
478.067
470.666
463.655
456.602
450.188
444.57
439.512
434.896
430.858
427.423
424.326
421.056
418.404
415.584
413.524
1102.71
1049.06
992.469
926.598
859.942
796.587
741.598
694.089
651.561
612.255
579.411
551.129
527.407
508.715
493.816
482.178
473.32
465.544
458.125
451.685
446.386
441.353
436.887
432.658
429.164
425.751
422.997
419.912
418.069
416.369
1111.04
1060.51
1007.46
946.54
882.666
822.754
770.053
722.71
678.83
638.027
603.145
571.639
544.544
522.155
503.812
489.268
477.881
468.479
461.022
455.064
449.653
444.553
440.081
435.771
432.044
428.518
425.941
422.986
420.982
419.536
1117.93
1072.22
1023.78
966.864
907.125
850.967
800.416
753.343
708.296
666.257
629.465
594.745
564.358
538.173
516.01
497.842
483.243
472.103
464.395
458.086
452.201
447.027
442.572
438.267
434.116
430.495
427.853
425.03
422.704
420.865
1126.95
1084.79
1040.88
987.7
932.979
880.566
832.144
785.921
739.962
696.754
658.144
620.489
586.934
557.071
531.171
509.331
491.667
478.207
468.696
461.582
455.584
450.321
445.577
441.215
436.909
433.295
430.687
428.17
425.665
423.663
1134.67
1098.11
1058.6
1010.03
960.331
911.376
865.039
819.867
773.933
729.518
688.9
648.868
612.544
579.305
549.826
524.13
502.852
486.137
473.679
464.829
458.299
452.824
447.91
443.423
439.11
435.448
432.842
430.339
427.459
426.2
1142.61
1111.61
1076.64
1033.53
988.569
943.007
898.904
855.015
809.361
764.342
722.133
679.713
641.052
604.748
571.907
542.608
517.412
496.682
480.812
469.256
461.602
455.566
450.552
445.963
441.733
438.136
435.487
432.945
430.241
429.453
1148.91
1124.27
1094.99
1057.65
1017.2
975.072
933.289
890.917
845.872
800.894
757.581
712.995
672.339
633.464
597.414
564.626
535.412
510.725
490.806
475.596
465.314
458.433
453.139
448.136
443.966
440.448
437.356
434.62
432.321
431.141
1157.23
1136.91
1113.39
1081.85
1045.81
1007.23
967.975
927.499
884.116
839.082
794.149
748.236
705.887
665.028
626.291
590.108
557.027
528.432
504.32
485.104
470.941
461.79
455.972
451.26
446.856
442.907
439.803
436.957
434.549
433.529
1163.42
1149.15
1131.36
1105.68
1074.07
1039.44
1002.84
964.362
922.938
878.09
831.585
785.492
741.629
699.15
657.997
618.529
581.939
549.48
521.117
497.577
479.166
466.425
458.695
453.706
448.929
444.781
441.227
438.232
436.042
435.229
1169.87
1160.58
1148.45
1128.69
1102.25
1071.42
1037.48
1001
961.389
916.684
870.052
824.579
779.512
735.246
692.013
649.713
610.01
573.872
541.191
513.067
490.649
473.649
462.867
456.386
451.266
446.797
442.94
439.858
437.93
437.072
1175.43
1171.43
1164.59
1150.91
1129.83
1102.77
1071.75
1037.29
999.171
954.426
909.241
864.386
818.949
772.977
727.892
683.278
640.765
601.164
564.328
531.67
504.179
482.829
468.107
459.158
453.292
448.447
444.155
441.036
439.207
438.519
1181.02
1181.25
1179.96
1171.89
1156.53
1133.19
1105.3
1072.95
1036.21
992.861
948.537
904.463
859.084
812.465
765.301
718.959
674.081
631.327
590.613
553.504
521.07
494.626
475.195
462.859
455.667
450.498
445.854
442.632
440.886
440.406
1185.42
1191.45
1194.46
1191.68
1181.79
1162.38
1137.66
1107.4
1072.11
1030.61
987.819
944.143
899.403
852.954
803.939
756.172
709.39
663.781
619.488
578.22
541.165
509.701
485.051
468.071
458.143
452.244
447.309
443.702
441.794
441.348
1188.38
1199.99
1207.44
1210.05
1205.33
1190.28
1168.56
1140.5
1106.95
1067.49
1026.38
983.797
939.539
893.784
844.079
794.681
746.536
698.449
650.921
605.698
564.125
527.656
497.741
475.487
461.383
454.075
449.162
445.268
443.16
442.698
1190.47
1207.78
1220.48
1227.2
1227.18
1216.59
1197.84
1172.07
1140.54
1103.44
1064.16
1022.79
978.876
934.48
885.277
834.358
785.106
734.991
684.61
635.614
589.523
547.96
512.459
484.582
465.962
456.07
450.595
446.21
443.882
443.44
1192.41
1214.56
1232
1243.02
1247.16
1241.01
1225.42
1201.95
1172.92
1138.24
1100.74
1060.72
1018.5
974.154
926.397
875.397
824.69
773.11
720.376
667.987
617.629
570.963
529.571
495.715
472.357
458.881
452.096
447.49
445.214
444.87
1193.05
1220.7
1242.63
1258.36
1265.52
1263.49
1251.2
1230.19
1203.74
1171.58
1136.02
1097.52
1056.95
1013.9
966.699
916.928
865.105
812.264
757.691
702.381
648.062
596.452
549.411
510.01
480.883
462.582
453.368
448.518
446.231
445.893
1192.36
1226.36
1252.52
1272.46
1282.58
1283.93
1275.05
1256.57
1232.91
1203.36
1169.84
1133.06
1094.23
1052.61
1006.06
957.595
906.201
851.781
795.815
738.216
680.586
624.83
573.093
528.374
492.801
468.306
455.349
449.537
446.947
446.432
1193.06
1232.03
1262.62
1285.62
1297.99
1302.32
1296.86
1281.2
1260.37
1233.42
1202
1167.21
1129.93
1089.8
1044.97
996.533
946.669
891.444
833.966
774.843
714.744
655.819
600.121
550.133
508.347
476.867
458.721
450.587
447.381
446.834
1173.26
1240.3
1274.71
1298.71
1313.12
1319.02
1316.55
1304.25
1286.04
1261.71
1232.54
1199.84
1163.96
1125.28
1081.99
1034.73
985.454
931.061
871.826
811.873
749.972
688.363
628.887
574.09
526.368
488.327
464.287
452.738
448.444
447.649
1198.97
1272.98
1298.32
1313.78
1327.48
1334.13
1334.48
1325.3
1309.91
1288.3
1261.47
1230.7
1196.32
1159.07
1117.41
1071.36
1022.64
969.085
909.342
848.798
785.694
721.829
658.794
599.107
545.641
501.854
471.258
455.736
449.763
448.468
396.479
401.075
405.705
409.996
413.986
417.914
421.869
426.178
431.513
436.916
442.846
449.211
455.638
461.921
468.236
474.393
481.298
489.385
500.834
516.022
537.792
568.278
607.026
656.968
718.149
792.663
874.737
957.656
1025.2
1089.62
402.274
405.561
409.735
413.801
417.461
421.125
425.058
429.261
434.983
440.35
445.6
452.159
458.897
465.188
471.517
478.308
486.032
495.915
510.206
528.884
553.893
587.203
626.951
675.804
733.551
802.653
879.877
958.921
1025.29
1089.29
404.633
407.421
411.406
415.359
418.843
422.466
426.476
430.736
435.802
441.146
446.628
453.309
460.116
466.555
472.968
480.446
489.694
501.685
518.355
539.535
566.561
601.315
641.422
689.814
747.731
815.252
889.295
965.156
1028.54
1089.04
409.747
412.56
416.347
419.588
422.035
425.406
429.204
433.74
438.351
443.38
449.099
455.307
463.031
470.171
477.162
486.346
497.978
513.025
533.005
557.599
587.206
624.131
666.256
713.956
770.169
835.499
904.953
976.599
1037.99
1097.86
413.779
415.814
418.726
422.045
424.163
427.241
431.092
435.626
440.139
444.974
450.54
456.896
464.61
472.897
481.667
493.249
508.043
526.539
549.963
578.088
610.482
649.21
692.484
740.052
794.85
858.197
924.461
991.57
1049.72
1105.22
417.961
419.558
422.022
424.891
428.335
430.951
434.03
438.38
442.965
448.177
453.859
459.759
466.599
476.127
487.846
502.533
521.011
543.324
570.195
601.568
636.213
676.328
720.898
768.271
820.843
880.721
944.16
1006.54
1061.43
1113.65
420.014
422.012
424.26
427.072
430.621
433.886
436.474
440.921
445.506
450.921
456.961
463.1
470.768
481.633
495.942
513.948
536.134
562.191
592.418
627.022
663.714
705.159
750.876
798.034
848.525
904.667
964.372
1022.7
1073.24
1120.53
423.526
425.047
427.498
430.423
433.244
436.722
439.999
444.045
448.882
454.335
460.327
467.451
476.769
489.827
507.021
528.436
554.089
583.657
617.02
654.51
693.198
735.824
782.651
829.09
877.696
930.072
984.928
1039.79
1085.81
1129.45
425.21
426.828
429.558
432.631
435.195
438.897
442.881
446.718
451.462
457.039
463.473
472.037
484.157
500.435
521.212
546.333
575.313
608.035
644.08
683.83
724.694
768.406
815.535
861.199
907.971
956.94
1006.58
1057.38
1099.11
1137.21
428.406
429.481
432.144
435.122
437.815
441.594
445.811
449.852
454.375
459.944
467.523
478.276
493.574
513.694
538.29
567.046
599.337
635.091
673.493
715.527
758.264
802.666
849.843
894.437
939.199
984.86
1029.55
1075.37
1112.68
1145.46
430.433
431.601
434.381
437.146
439.779
443.664
447.902
452.307
456.932
463.22
472.768
486.705
505.676
529.674
558.161
590.491
626.105
664.59
704.959
749.406
793.452
838.018
884.929
928.194
970.843
1013.13
1053.17
1093.4
1125.43
1151.73
433.946
434.707
436.782
439.403
442.226
446.271
450.394
455.112
460.233
467.94
480.304
498.154
521.084
548.795
581.162
616.842
655.333
696.154
738.487
784.506
830.162
875.106
920.874
962.342
1002.59
1041.37
1076.86
1111.51
1137.97
1159.83
435.346
436.169
437.921
440.584
444.08
448.171
452.771
457.608
463.795
474.233
490.706
512.623
539.629
571.101
607.057
646.105
687.229
729.939
774.045
820.708
867.877
913.166
957.408
996.778
1034.3
1069.38
1100.24
1129.32
1150.14
1166.45
437.102
437.68
439.519
442.384
446.121
450.322
455.082
460.466
469.102
483.546
504.426
530.452
561.547
596.66
635.804
677.964
721.362
766.001
811.714
858.086
905.663
951.292
993.897
1031.21
1065.68
1096.87
1123.08
1146.4
1161.49
1172.75
438.315
438.979
440.614
443.595
447.702
452
457.056
464.329
476.648
495.706
520.882
551.478
586.715
625.35
667.39
712.193
757.519
804.21
850.64
896.625
942.968
988.826
1029.94
1065.32
1096.66
1123.76
1145.56
1162.58
1172.19
1178.69
440.199
440.697
442.191
445.267
449.597
453.969
459.95
470.325
487.181
510.856
540.736
575.939
615.258
657.241
701.769
748.535
795.999
843.609
890.205
935.513
981.021
1025.87
1065.31
1098.71
1126.95
1150
1167.06
1177.98
1182.09
1183.88
441.13
441.504
443.186
446.665
451.227
455.975
463.891
478.309
500.079
528.881
563.881
603.611
646.79
691.868
738.478
786.628
836.305
883.638
929.69
974.614
1018.9
1062.13
1099.72
1131.03
1156.12
1175.51
1187.11
1192.51
1191.78
1188.35
442.136
442.437
444.353
448.215
452.951
458.667
469.763
489.046
516.309
550.479
590.459
634.576
681.284
729.039
777.21
826.521
877.567
924.137
969.517
1013.49
1056.04
1097.17
1132.99
1162.04
1184.04
1199.59
1205.85
1205.49
1200.53
1191.4
442.826
443.089
445.151
449.382
454.44
462.082
477.587
502.542
535.649
575.336
620.181
668.465
718.322
768.272
817.481
868.183
919.131
964.316
1009.14
1051.77
1092.48
1131.26
1164.86
1191.54
1210.56
1221.93
1223.24
1218.51
1208.38
1193.93
444.116
444.265
446.352
450.733
456.638
467.521
488.133
519.2
558.439
603.648
653.122
705.104
757.52
809
859.231
910.545
960.029
1004.9
1047.79
1089
1127.86
1164.15
1195.12
1219.32
1235.32
1242.47
1239.2
1230.17
1215.3
1196.08
444.902
445.168
447.471
452.012
459.609
475.15
501.928
539.197
584.563
635.052
688.694
743.786
798.143
850.658
902.029
952.417
1000.61
1044.53
1085.56
1125.1
1161.92
1195.55
1223.63
1245.3
1258.27
1261.39
1254.85
1241
1221.54
1196.92
445.282
445.801
448.49
453.626
464.363
485.979
519.725
562.994
613.867
668.994
726.149
783.671
839.362
893.006
944.457
992.911
1040.7
1083.07
1122.16
1159.87
1194.51
1225.36
1250.32
1269.44
1279.34
1278.89
1269.37
1251.14
1227.28
1196.31
445.794
446.349
449.465
456.5
471.953
500.954
541.547
590.646
646.051
704.791
764.608
823.798
880.503
935.312
985.244
1033.25
1079.22
1119.94
1157.37
1192.92
1225.4
1253.51
1275.35
1291.74
1298.55
1295.06
1283.06
1261.5
1232.99
1197.07
446.756
447.471
451.385
461.537
483.28
519.378
566.215
620.667
680.122
741.744
803.474
863.56
921.485
976.079
1024.56
1071.63
1115.97
1155.08
1190.98
1224.29
1254.51
1279.89
1298.97
1312.11
1316.22
1310.84
1296.71
1273.86
1241.37
1177.73
447.556
448.733
454.102
467.894
496.156
538.724
591.833
651.586
714.941
779.043
842.119
902.62
961.14
1014.82
1062.47
1108.32
1150.84
1188.41
1222.78
1254.02
1281.92
1304.61
1320.96
1330.69
1332.63
1325.94
1312.16
1297.55
1274.89
1202.96
1430.27
1483.48
1503.16
1538.61
1558.71
1587.79
1607.04
1630.79
1649.38
1668.91
1686.23
1703.01
1718.76
1733.74
1747.97
1761.45
1774.21
1786.32
1797.9
1808.6
1818.73
1828.78
1838.43
1847.39
1855.8
1863.81
1871.5
1878.89
1885.96
1892.68
1899.06
1905.09
1910.76
1916.06
1920.99
1925.54
1929.72
1933.51
1936.89
1939.83
1942.35
1944.43
1946.01
1947
1947.42
1947.19
1946.28
1945.17
1942.23
1938.86
1934.61
1929.45
1923.38
1916.33
1908.23
1899.21
1889.22
1878.32
1866.38
1853.52
1839.69
1824.85
1809.03
1792.28
1774.61
1756.06
1736.66
1716.43
1695.44
1673.68
1651.26
1628.22
1604.49
1580.29
1555.51
1530.16
1504.59
1478.41
1451.52
1424.8
1397.63
1369.28
1341.61
1313.49
1283.57
1254.07
1224.98
1193.04
1159.66
1127.9
1095.18
1059.72
1023.69
986.464
948.08
908.48
868.424
828.495
788.89
750.612
714.15
680.457
649.105
621.028
595.806
573.229
553.683
536.61
521.425
508.382
497.38
487.865
479.498
472.323
466.871
462.719
459.31
456.219
453.932
452.262
451.049
449.755
448.683
448.124
447.825
1532.08
1568.73
1593.36
1619.3
1642.28
1664.96
1685.54
1705.49
1723.9
1741.53
1758.09
1773.84
1788.79
1803.02
1816.57
1829.48
1841.8
1853.55
1864.66
1875.25
1885.65
1895.77
1905.36
1914.34
1922.92
1931.15
1939.05
1946.63
1953.89
1960.8
1967.37
1973.58
1979.43
1984.92
1990.05
1994.81
1999.19
2003.19
2006.77
2009.91
2012.58
2014.76
2016.41
2017.45
2017.88
2017.7
2016.82
2015.26
2012.73
2009.41
2005.24
2000.17
1994.25
1987.75
1979.64
1970.85
1961.02
1950.11
1938.09
1925.07
1911.05
1896.05
1880.15
1863.27
1845.42
1826.63
1806.98
1786.51
1765.25
1743.24
1720.57
1697.28
1673.42
1649.09
1624.32
1599.05
1573.4
1547.34
1521
1494.44
1467.58
1440.37
1412.96
1385.11
1356.75
1328.15
1298.92
1268.61
1237.8
1206.76
1174.56
1141.14
1107.14
1071.74
1035.5
998.544
961.281
923.943
887.01
850.994
816.32
783.721
752.88
724.321
697.632
672.853
649.958
628.472
608.07
588.876
570.813
553.677
537.448
522.308
508.737
496.75
486.462
477.702
470.308
464.194
459.483
455.624
452.42
450.412
449.561
1605.43
1634.41
1659.36
1682.73
1704.75
1725.73
1745.46
1764.21
1781.86
1798.77
1814.79
1830.06
1844.65
1858.61
1871.97
1884.77
1897.03
1908.8
1920.13
1931.16
1941.88
1952.16
1961.93
1971.25
1980.24
1988.89
1997.21
2005.19
2012.83
2020.11
2027.03
2033.58
2039.75
2045.55
2050.99
2056.06
2060.74
2065
2068.81
2072.14
2074.93
2077.18
2078.84
2079.84
2080.21
2079.96
2078.97
2077.24
2074.66
2071.27
2067.02
2061.91
2055.95
2049.11
2041.24
2032.38
2022.5
2011.61
1999.65
1986.4
1972.16
1956.85
1940.39
1922.81
1904.31
1884.92
1864.73
1843.72
1821.91
1799.34
1776.15
1752.4
1728.15
1703.46
1678.41
1653.06
1627.49
1601.73
1575.69
1549.48
1523.08
1496.58
1469.93
1443.04
1415.89
1388.45
1360.56
1332.13
1303.33
1274.17
1244.33
1213.74
1182.29
1149.94
1116.81
1083.18
1049.22
1015.41
982.465
949.796
917.818
886.997
857.296
828.955
801.745
775.742
750.825
726.709
703.222
680.362
658.134
636.591
615.687
595.501
576.47
558.25
540.845
525.005
510.348
496.698
485.053
475.173
466.813
460.571
456.899
1672.08
1697.78
1722.15
1744.32
1765.44
1785.54
1804.61
1822.76
1840.05
1856.58
1872.41
1887.53
1902.07
1916.13
1929.63
1942.63
1955.16
1967.34
1979.28
1990.93
2002.15
2012.85
2023.08
2033.01
2042.65
2051.94
2060.89
2069.49
2077.73
2085.59
2093.06
2100.14
2106.85
2113.19
2119.17
2124.77
2129.95
2134.66
2138.84
2142.45
2145.44
2147.81
2149.54
2150.52
2150.85
2150.52
2149.41
2147.52
2144.81
2141.26
2136.87
2131.63
2125.51
2118.49
2110.45
2101.36
2091.16
2079.84
2067.34
2053.63
2038.78
2022.82
2005.96
1987.58
1968.29
1948.01
1926.68
1904.28
1881.21
1857.57
1833.48
1808.95
1783.99
1758.63
1733.03
1707.25
1681.35
1655.38
1629.43
1603.41
1577.28
1551.12
1524.97
1498.79
1472.54
1446.14
1419.51
1392.57
1365.35
1337.77
1309.74
1281.17
1252.02
1222.35
1192.31
1161.98
1131.36
1100.6
1069.99
1039.65
1009.91
980.947
952.823
925.609
898.941
872.769
847.244
822.162
797.399
772.886
748.631
724.71
701.063
677.68
655.002
632.784
610.824
590.092
570.465
551.123
532.669
515.255
499.162
485.41
475.496
1738.08
1762.62
1786.56
1808.04
1828.59
1848.2
1866.91
1884.79
1901.94
1918.43
1934.3
1949.63
1964.46
1978.84
1992.77
2006.29
2019.33
2032.28
2045.03
2057.46
2069.4
2080.77
2091.72
2102.41
2112.92
2123.04
2132.8
2142.21
2151.21
2159.79
2167.97
2175.75
2183.17
2190.27
2197.02
2203.37
2209.24
2214.55
2219.24
2223.22
2226.51
2229.08
2230.94
2231.95
2232.28
2231.9
2230.68
2228.64
2225.76
2222.03
2217.44
2211.97
2205.62
2198.31
2189.95
2180.44
2169.68
2157.65
2144.33
2129.71
2113.83
2096.71
2078.39
2058.79
2038.07
2016.35
1993.93
1970
1945.71
1920.74
1895.16
1868.95
1842.54
1816.05
1789.6
1763.13
1736.63
1710.16
1683.85
1657.71
1631.82
1606.06
1580.33
1554.69
1529.13
1503.61
1478.03
1452.36
1426.56
1400.57
1374.31
1347.72
1320.78
1293.5
1265.94
1238.16
1210.27
1182.41
1154.65
1126.96
1099.3
1071.91
1044.94
1018.49
992.318
966.477
941.57
916.568
891.435
866.306
841.148
815.999
790.835
765.538
740.433
715.539
690.531
665.975
642.217
618.259
594.569
571.612
549.339
528.364
510.809
1805.11
1829.9
1853.62
1874.74
1895.06
1914.47
1933.07
1950.94
1968.19
1984.87
2001.06
2016.8
2032.12
2047.06
2061.63
2075.86
2089.82
2103.63
2117.24
2130.56
2143.24
2155.4
2167.21
2178.81
2190.28
2201.3
2211.86
2222.12
2231.88
2241.17
2250.04
2258.53
2266.72
2274.68
2282.32
2289.53
2296.16
2302.13
2307.36
2311.78
2315.42
2318.28
2320.37
2321.5
2321.85
2321.48
2320.21
2318.1
2315.12
2311.23
2306.41
2300.69
2294.06
2286.43
2277.67
2267.65
2256.18
2243.25
2228.89
2213.08
2195.88
2177.29
2157.29
2135.92
2113.3
2089.54
2064.78
2039.07
2012.7
1985.88
1958.95
1931.26
1903.67
1875.89
1847.96
1819.96
1792.22
1764.86
1737.99
1711.51
1685.41
1659.73
1634.53
1609.58
1584.77
1560.1
1535.59
1511.13
1486.69
1462.18
1437.52
1412.69
1387.67
1362.49
1337.15
1311.69
1286.17
1260.65
1235.1
1209.56
1184.13
1158.84
1133.71
1108.6
1083.3
1058.07
1033
1007.63
982.775
957.884
932.531
906.944
881.089
854.826
828.31
801.632
774.655
747.458
720.54
693.172
665.532
638.246
611.223
584.181
560.023
1873.56
1899.55
1923.21
1944.25
1964.58
1984
2002.67
2020.72
2038.24
2055.29
2071.94
2088.21
2104.14
2119.72
2134.99
2150
2164.8
2179.4
2193.71
2207.72
2221.09
2233.99
2246.56
2258.95
2271.18
2282.89
2294.08
2304.76
2314.88
2324.47
2333.64
2342.52
2351.08
2359.64
2367.99
2375.78
2382.88
2389.22
2394.9
2399.65
2403.62
2406.82
2409.2
2410.46
2410.88
2410.61
2409.48
2407.52
2404.67
2400.81
2395.72
2389.78
2383.26
2375.5
2366.54
2356.45
2344.59
2330.99
2315.75
2298.9
2280.57
2260.69
2239.17
2216.03
2191.46
2165.52
2138.37
2110.3
2081.61
2052.51
2023.23
1993.78
1964.33
1934.94
1905.95
1876.79
1847.97
1819.41
1791.24
1763.77
1737.15
1711.39
1686.36
1661.93
1637.99
1614.46
1591.1
1567.79
1544.65
1521.59
1498.52
1475.4
1452.19
1428.85
1405.39
1381.82
1358.17
1334.45
1310.72
1287
1263.31
1239.64
1215.95
1192.18
1168.33
1144.45
1120.45
1095.99
1071.24
1045.97
1019.95
994.529
968.531
941.968
914.885
887.213
859.022
830.232
801.118
771.384
740.988
710.339
679.801
648.547
619.129
1943.05
1970.96
1994.59
2015.71
2036.19
2055.68
2074.51
2092.79
2110.61
2128.04
2145.1
2161.81
2178.17
2194.18
2209.88
2225.32
2240.51
2255.42
2269.96
2284.07
2297.65
2310.76
2323.51
2336.06
2348.35
2359.94
2370.77
2380.85
2390.15
2398.8
2407
2414.91
2422.63
2430.22
2437.48
2444.15
2449.96
2454.89
2459.99
2464.05
2467.45
2470.01
2471.87
2472.56
2472.85
2472.54
2471.88
2470.53
2468.52
2465.41
2461.24
2456.32
2450.65
2444.01
2435.74
2427.4
2416.95
2404.56
2390.22
2374.4
2357.07
2337.82
2316.13
2292.48