/*--------------------------------*- C++ -*----------------------------------*\
| =========                 |                                                 |
| \\      /  F ield         | OpenFOAM: The Open Source CFD Toolbox           |
|  \\    /   O peration     | Version:  2112                                  |
|   \\  /    A nd           | Website:  www.openfoam.com                      |
|    \\/     M anipulation  |                                                 |
\*---------------------------------------------------------------------------*/
FoamFile
{
    version     2.0;
    format      ascii;
    arch        "LSB;label=32;scalar=64";
    class       volScalarField;
    location    "0.00057";
    object      p;
}
// * * * * * * * * * * * * * * * * * * * * * * * * * * * * * * * * * * * * * //

dimensions      [1 -1 -2 0 0 0 0];

internalField   nonuniform List<scalar> 
13875
(
945500
986255
973880
972838
974448
974994
974946
974549
974889
974673
974891
974764
974575
974461
974417
974586
974355
974821
975462
975376
974380
972312
973965
985842
951584
731099
659736
671359
673480
674556
670447
671371
672138
677002
672762
670335
669414
669061
669271
670308
677067
678679
679126
679010
678519
676896
673061
668673
660613
729967
734299
635868
665004
654994
651365
647721
646967
646993
646744
645023
644486
644097
643860
644419
644837
646410
649281
650791
650877
651558
654517
658762
668669
638511
732624
741253
636540
666040
655300
651563
647934
647099
647082
646163
645057
644606
644219
643966
644538
644954
646242
648038
649214
650158
651649
654761
659222
669947
639480
737973
755682
639721
668979
656379
652350
648605
647478
647412
646277
645316
644973
644586
644337
644903
645312
646367
648159
649318
650308
652072
655641
660683
673659
643580
748493
759557
648954
675669
659105
654364
650116
648304
648133
646712
646029
645722
645371
645156
645680
646099
646832
648570
649711
650983
653303
657920
664331
682505
655411
758849
769828
671203
689966
665689
658890
653350
650127
649645
647902
647615
647254
646980
646835
647294
647752
648180
649754
650947
652926
656533
663567
674170
701516
690262
784797
804424
726888
720571
682929
669130
660288
654338
652935
650835
650903
650486
650297
650228
650591
651092
651300
652566
654039
657323
663572
675824
696524
744771
773706
862745
944584
852357
786942
720935
690684
674421
663607
660083
657496
657582
657323
657155
657173
657417
657940
658075
659030
661155
666709
678345
701711
746312
843498
980418
1.17247e+06
1.61896e+06
1.09215e+06
879715
771804
721013
695013
680224
674214
671512
671221
671358
671184
671304
671392
671829
672051
672724
675399
683131
700382
737472
814678
991524
1.40494e+06
2.38813e+06
3.10774e+06
1.56383e+06
1.07993e+06
869742
777458
734236
713523
704291
700770
699717
700188
700008
700233
700111
700339
700728
701538
704842
714988
739555
796274
926151
1.26203e+06
2.2369e+06
4.87249e+06
6.07049e+06
2.61977e+06
1.75761e+06
1.15839e+06
931091
829905
791719
775281
768319
765929
766266
766481
766977
766434
765887
766308
768118
774311
791592
837137
959175
1.24508e+06
2.18761e+06
4.41994e+06
4.86563e+06
5.90279e+06
4.94365e+06
4.57987e+06
2.10165e+06
1.44077e+06
1.11542e+06
1.0147e+06
973985
956762
951360
951156
953464
954788
952763
948722
948832
953031
968279
1.01062e+06
1.12791e+06
1.5153e+06
2.17182e+06
4.76085e+06
4.42678e+06
4.71221e+06
5.36064e+06
4.76163e+06
4.94333e+06
4.72338e+06
4.17891e+06
2.06162e+06
1.74363e+06
1.64892e+06
1.61546e+06
1.6116e+06
1.62555e+06
1.64621e+06
1.65674e+06
1.64299e+06
1.61491e+06
1.59812e+06
1.60125e+06
1.63479e+06
1.75545e+06
2.16396e+06
4.17027e+06
4.68037e+06
4.72683e+06
4.33123e+06
4.36322e+06
4.30657e+06
4.32385e+06
4.72613e+06
4.997e+06
5.04797e+06
5.00281e+06
4.26149e+06
4.0478e+06
4.12999e+06
4.115e+06
4.16051e+06
4.23608e+06
4.2877e+06
4.22362e+06
4.11123e+06
4.03185e+06
4.03534e+06
3.93949e+06
4.10395e+06
4.85647e+06
4.93059e+06
4.71762e+06
4.57253e+06
4.12451e+06
4.08569e+06
3.7273e+06
3.63439e+06
4.1879e+06
4.9483e+06
5.54976e+06
6.88826e+06
8.39891e+06
9.67422e+06
1.01021e+07
1.02565e+07
1.02585e+07
1.02127e+07
1.01648e+07
1.01538e+07
1.0148e+07
1.00953e+07
9.93577e+06
9.54338e+06
8.65512e+06
6.99239e+06
5.50135e+06
4.71643e+06
4.24328e+06
3.7414e+06
3.73955e+06
2.79866e+06
3.09481e+06
4.00074e+06
4.9748e+06
5.89345e+06
7.15156e+06
8.10727e+06
8.38351e+06
8.08388e+06
7.76163e+06
7.43596e+06
7.22597e+06
7.14424e+06
7.16996e+06
7.32065e+06
7.58122e+06
7.91174e+06
8.32356e+06
8.20663e+06
7.21214e+06
5.98434e+06
4.87615e+06
4.07702e+06
3.22689e+06
2.9359e+06
2.05803e+06
2.66205e+06
4.01923e+06
4.98868e+06
5.86798e+06
6.6631e+06
6.66775e+06
6.3365e+06
6.17422e+06
6.1508e+06
6.19387e+06
6.26628e+06
6.30453e+06
6.27074e+06
6.17996e+06
6.11883e+06
6.11911e+06
6.28039e+06
6.59063e+06
6.62269e+06
5.92744e+06
4.96547e+06
3.88975e+06
2.52056e+06
1.89824e+06
1.14865e+06
2.0103e+06
3.62841e+06
4.28128e+06
4.87696e+06
5.17177e+06
5.19681e+06
5.24069e+06
5.33457e+06
5.47289e+06
5.60609e+06
5.69734e+06
5.73463e+06
5.70588e+06
5.61361e+06
5.47692e+06
5.33051e+06
5.24367e+06
5.20176e+06
5.1721e+06
4.96965e+06
4.36526e+06
3.44433e+06
2.16022e+06
1.24767e+06
747034
1.38527e+06
2.49598e+06
3.16071e+06
3.71181e+06
4.02566e+06
4.21111e+06
4.41744e+06
4.65468e+06
4.86979e+06
5.02572e+06
5.1173e+06
5.14996e+06
5.1232e+06
5.0339e+06
4.87975e+06
4.66384e+06
4.41775e+06
4.20934e+06
4.03382e+06
3.74705e+06
3.18064e+06
2.38113e+06
1.4933e+06
840855
1.06053e+06
1.36933e+06
1.78663e+06
2.37806e+06
2.86159e+06
3.20229e+06
3.4731e+06
3.7593e+06
4.03992e+06
4.26787e+06
4.42498e+06
4.51491e+06
4.54415e+06
4.51323e+06
4.42187e+06
4.2641e+06
4.03528e+06
3.74616e+06
3.44953e+06
3.17341e+06
2.83959e+06
2.34789e+06
1.76258e+06
1.31896e+06
1.1625e+06
1.71949e+06
1.43317e+06
1.52879e+06
1.81544e+06
2.27391e+06
2.59369e+06
2.90547e+06
3.21634e+06
3.48732e+06
3.69761e+06
3.84081e+06
3.92334e+06
3.94864e+06
3.91635e+06
3.8283e+06
3.68225e+06
3.47084e+06
3.19026e+06
2.87277e+06
2.55326e+06
2.2359e+06
1.78071e+06
1.52204e+06
1.39009e+06
1.68308e+06
1.81657e+06
1.55244e+06
1.53255e+06
1.58985e+06
1.86644e+06
2.1328e+06
2.46042e+06
2.74667e+06
2.99067e+06
3.1813e+06
3.30948e+06
3.38099e+06
3.40099e+06
3.37181e+06
3.29298e+06
3.15981e+06
2.97063e+06
2.72879e+06
2.41349e+06
2.10271e+06
1.83868e+06
1.56891e+06
1.52262e+06
1.53178e+06
1.76321e+06
1.86258e+06
1.75729e+06
1.54689e+06
1.50389e+06
1.64064e+06
1.82959e+06
2.09623e+06
2.33651e+06
2.553e+06
2.72622e+06
2.84242e+06
2.90809e+06
2.92352e+06
2.89667e+06
2.82589e+06
2.70684e+06
2.52997e+06
2.3177e+06
2.06608e+06
1.80059e+06
1.6162e+06
1.48144e+06
1.53238e+06
1.75082e+06
1.85024e+06
1.89897e+06
1.88381e+06
1.57426e+06
1.48663e+06
1.50374e+06
1.61968e+06
1.81536e+06
2.00556e+06
2.18923e+06
2.34002e+06
2.44436e+06
2.50362e+06
2.51974e+06
2.49532e+06
2.42935e+06
2.32089e+06
2.16864e+06
1.98871e+06
1.7918e+06
1.59327e+06
1.48113e+06
1.46636e+06
1.5564e+06
1.86133e+06
1.89508e+06
1.96079e+06
1.92539e+06
1.61782e+06
1.48542e+06
1.43948e+06
1.47689e+06
1.59729e+06
1.74301e+06
1.89345e+06
2.02164e+06
2.11406e+06
2.16711e+06
2.18372e+06
2.16081e+06
2.1021e+06
2.00568e+06
1.87693e+06
1.72908e+06
1.57931e+06
1.45648e+06
1.4197e+06
1.4679e+06
1.59185e+06
1.90864e+06
1.96219e+06
2.0058e+06
2.00116e+06
1.68298e+06
1.48834e+06
1.39588e+06
1.38913e+06
1.4393e+06
1.53794e+06
1.65416e+06
1.7594e+06
1.84009e+06
1.88621e+06
1.90155e+06
1.88129e+06
1.82993e+06
1.74649e+06
1.63994e+06
1.52415e+06
1.42176e+06
1.36913e+06
1.37596e+06
1.47254e+06
1.66996e+06
1.98442e+06
1.99809e+06
2.05924e+06
2.10777e+06
1.8136e+06
1.50504e+06
1.35833e+06
1.32291e+06
1.32706e+06
1.38266e+06
1.46641e+06
1.54955e+06
1.61623e+06
1.65526e+06
1.6685e+06
1.65183e+06
1.60892e+06
1.53897e+06
1.45423e+06
1.37032e+06
1.31315e+06
1.30993e+06
1.34567e+06
1.49085e+06
1.8069e+06
2.10738e+06
2.0742e+06
2.14724e+06
2.13961e+06
1.93102e+06
1.55206e+06
1.35232e+06
1.26558e+06
1.24841e+06
1.25894e+06
1.31229e+06
1.37634e+06
1.4312e+06
1.4639e+06
1.4757e+06
1.46259e+06
1.42804e+06
1.37065e+06
1.3046e+06
1.24955e+06
1.23804e+06
1.25315e+06
1.34198e+06
1.52963e+06
1.92783e+06
2.129e+06
2.17558e+06
2.29364e+06
2.17246e+06
2.14016e+06
1.62255e+06
1.35618e+06
1.21578e+06
1.17668e+06
1.17108e+06
1.1899e+06
1.234e+06
1.27748e+06
1.30348e+06
1.31306e+06
1.30113e+06
1.27296e+06
1.22796e+06
1.1822e+06
1.16082e+06
1.16654e+06
1.20695e+06
1.34927e+06
1.62286e+06
2.16561e+06
2.17828e+06
2.23157e+06
2.37964e+06
2.19975e+06
2.28891e+06
1.76819e+06
1.38044e+06
1.18914e+06
1.11985e+06
1.10328e+06
1.1002e+06
1.12392e+06
1.15544e+06
1.17609e+06
1.18371e+06
1.17494e+06
1.15284e+06
1.1199e+06
1.09451e+06
1.09739e+06
1.11331e+06
1.18306e+06
1.36961e+06
1.7623e+06
2.3001e+06
2.19514e+06
2.33053e+06
2.41882e+06
2.24922e+06
2.29753e+06
2.05617e+06
1.44692e+06
1.1897e+06
1.06682e+06
1.03198e+06
1.02543e+06
1.03235e+06
1.05464e+06
1.07132e+06
1.07785e+06
1.07109e+06
1.05406e+06
1.03037e+06
1.02175e+06
1.02774e+06
1.06116e+06
1.18359e+06
1.42699e+06
2.03219e+06
2.30422e+06
2.22378e+06
2.38388e+06
2.49374e+06
2.28566e+06
2.30666e+06
2.2773e+06
1.54161e+06
1.19991e+06
1.04933e+06
988433
968674
965710
973935
986300
990753
984999
970959
962576
965557
984976
1.04403e+06
1.19749e+06
1.54431e+06
2.29048e+06
2.30819e+06
2.28049e+06
2.49997e+06
2.4917e+06
2.3216e+06
2.30597e+06
2.27742e+06
1.7389e+06
1.23504e+06
1.04645e+06
955999
929453
922997
922200
927816
930831
927229
920539
920639
926586
952148
1.03865e+06
1.22274e+06
1.73576e+06
2.27969e+06
2.30693e+06
2.31704e+06
2.50574e+06
2.48921e+06
2.32166e+06
2.30485e+06
2.27794e+06
1.93561e+06
1.30409e+06
1.05529e+06
952048
900290
878583
872216
871060
872138
871469
872488
878365
899206
950432
1.04525e+06
1.27243e+06
1.90324e+06
2.27197e+06
2.30006e+06
2.31713e+06
2.49022e+06
2.46097e+06
2.31989e+06
2.28426e+06
2.25767e+06
2.00507e+06
1.35512e+06
1.06515e+06
953545
900555
874861
862037
855947
853820
855466
861344
874059
899677
953132
1.06357e+06
1.36308e+06
2.00275e+06
2.25592e+06
2.27043e+06
2.31145e+06
2.4331e+06
2.45649e+06
2.32199e+06
2.28382e+06
2.25464e+06
2.06201e+06
1.41463e+06
1.08758e+06
960798
903257
875971
862468
856395
854252
855973
861790
875010
901587
958123
1.08446e+06
1.41111e+06
2.05785e+06
2.24922e+06
2.27021e+06
2.29989e+06
2.43076e+06
2.4642e+06
2.33363e+06
2.29385e+06
2.25886e+06
2.14725e+06
1.50327e+06
1.12879e+06
976662
910331
880329
865541
859102
856864
858733
864719
878919
907809
971541
1.12129e+06
1.49267e+06
2.15776e+06
2.25188e+06
2.27962e+06
2.30861e+06
2.44107e+06
2.49483e+06
2.3593e+06
2.32087e+06
2.26872e+06
2.15058e+06
1.64064e+06
1.18526e+06
1.00474e+06
925224
890946
874082
866704
864256
866578
873709
890347
924762
1.00424e+06
1.19019e+06
1.64784e+06
2.16122e+06
2.26403e+06
2.30543e+06
2.3385e+06
2.46695e+06
2.5469e+06
2.42242e+06
2.35913e+06
2.28869e+06
2.14805e+06
1.76998e+06
1.30506e+06
1.06695e+06
960294
917088
895387
885281
881911
885078
894838
916158
959282
1.0647e+06
1.30754e+06
1.76079e+06
2.15348e+06
2.28272e+06
2.34713e+06
2.40521e+06
2.53006e+06
2.65529e+06
2.49865e+06
2.45623e+06
2.31016e+06
2.13658e+06
1.76995e+06
1.45931e+06
1.19798e+06
1.039e+06
975766
941461
924769
919732
924410
940602
974267
1.03623e+06
1.19114e+06
1.44921e+06
1.75984e+06
2.13043e+06
2.29953e+06
2.45474e+06
2.53044e+06
2.69331e+06
2.96001e+06
2.69319e+06
2.49227e+06
2.30885e+06
2.08649e+06
1.74637e+06
1.49453e+06
1.33404e+06
1.20452e+06
1.09772e+06
1.03375e+06
1.0102e+06
1.00404e+06
1.01054e+06
1.03453e+06
1.09852e+06
1.20478e+06
1.33431e+06
1.49327e+06
1.75156e+06
2.07844e+06
2.30086e+06
2.48482e+06
2.70569e+06
2.94717e+06
3.03475e+06
2.78144e+06
2.49548e+06
2.29474e+06
1.97318e+06
1.69587e+06
1.51013e+06
1.39757e+06
1.322e+06
1.26173e+06
1.22317e+06
1.19826e+06
1.18799e+06
1.19865e+06
1.2245e+06
1.26367e+06
1.32433e+06
1.39917e+06
1.50869e+06
1.69964e+06
1.95798e+06
2.28072e+06
2.48506e+06
2.77764e+06
3.03551e+06
3.00964e+06
2.78031e+06
2.4887e+06
2.19514e+06
1.87568e+06
1.66647e+06
1.52666e+06
1.45425e+06
1.39952e+06
1.36084e+06
1.33314e+06
1.31696e+06
1.31118e+06
1.31638e+06
1.33163e+06
1.35916e+06
1.39786e+06
1.45195e+06
1.52498e+06
1.65875e+06
1.86118e+06
2.18237e+06
2.47148e+06
2.77379e+06
3.00989e+06
2.86014e+06
2.66839e+06
2.40594e+06
2.02583e+06
1.78241e+06
1.62689e+06
1.52493e+06
1.47787e+06
1.44933e+06
1.42438e+06
1.40627e+06
1.39607e+06
1.39251e+06
1.39629e+06
1.40674e+06
1.42508e+06
1.45028e+06
1.47802e+06
1.5244e+06
1.62372e+06
1.77753e+06
2.02385e+06
2.39647e+06
2.66624e+06
2.85878e+06
2.37121e+06
2.16532e+06
2.04648e+06
1.75306e+06
1.63198e+06
1.55782e+06
1.51227e+06
1.47704e+06
1.45813e+06
1.44905e+06
1.44217e+06
1.43749e+06
1.4359e+06
1.43751e+06
1.44218e+06
1.44913e+06
1.45821e+06
1.47707e+06
1.51143e+06
1.55654e+06
1.63075e+06
1.75168e+06
2.03928e+06
2.15208e+06
2.36439e+06
1.2034e+06
921591
922010
1.10252e+06
1.31737e+06
1.41007e+06
1.45393e+06
1.4547e+06
1.44775e+06
1.44328e+06
1.44018e+06
1.43833e+06
1.43773e+06
1.43828e+06
1.44001e+06
1.44313e+06
1.44759e+06
1.45416e+06
1.45331e+06
1.41166e+06
1.32157e+06
1.10375e+06
916907
903784
1.19746e+06
356787
205246
196606
334132
613761
970885
1.20594e+06
1.30663e+06
1.35618e+06
1.38215e+06
1.39591e+06
1.40223e+06
1.40425e+06
1.40205e+06
1.3954e+06
1.38129e+06
1.35491e+06
1.30452e+06
1.20297e+06
969425
613967
332718
194323
200633
350740
82795.2
73877.4
74045.2
83575.7
141965
294673
508158
742146
926117
1.05695e+06
1.13359e+06
1.16906e+06
1.18081e+06
1.16858e+06
1.13235e+06
1.055e+06
923650
739695
506093
293430
141613
83438.8
73954.5
73716.1
82193.9
70755.4
70582.4
70614.5
70856.6
72540.2
80346.6
110407
174246
259805
346950
429489
483985
504466
483373
428425
345938
258812
173500
110005
80238.7
72524.3
70852.6
70613.6
70580.5
70744.4
71387.3
71342.9
71406.1
71049.1
70841.1
70719.8
70666.3
70645.7
70639
70637.3
70637
70636.9
70636.9
70636.9
70636.9
70636.9
70636.9
70636.9
70636.9
70636.9
70636.9
70636.9
70636.9
70636.9
70636.6
70635.9
70634.1
70638.4
70616.4
70660.2
71293.3
71397.5
71461.1
71080
70864.1
70729.9
70669.7
70646.5
70639.2
70637.3
70637
70636.9
70636.9
70636.9
70636.9
70636.9
70636.9
70636.9
70636.9
70636.9
70636.9
70636.9
70636.9
70636.9
70636.6
70635.8
70634.4
70638.3
70624.2
70652.6
71223.8
71488.9
71524.7
71093.9
70877
70731.4
70669.5
70646.2
70639
70637.3
70637
70636.9
70636.9
70636.9
70636.9
70636.9
70636.9
70636.9
70636.9
70636.9
70636.9
70636.9
70636.9
70636.9
70636.6
70635.9
70635.1
70637.7
70630.4
70646.7
71201.6
71580.5
71578.1
71098.3
70885.5
70731.5
70669
70645.7
70638.8
70637.2
70637
70636.9
70636.9
70636.9
70636.9
70636.9
70636.9
70636.9
70636.9
70636.9
70636.9
70636.9
70636.9
70636.9
70636.7
70636.1
70635.7
70636.8
70633.3
70643.9
71196.8
71637.4
71615.1
71092.4
70886
70730.1
70667.8
70644.9
70638.5
70637.2
70637
70636.9
70636.9
70636.9
70636.9
70636.9
70636.9
70636.9
70636.9
70636.9
70636.9
70636.9
70636.9
70636.9
70636.8
70636.4
70635.9
70636.5
70635
70641.8
71238.3
71647.1
71615.9
71075.6
70881.5
70726.5
70665.3
70643.8
70638.2
70637.1
70637
70636.9
70636.9
70636.9
70636.9
70636.9
70636.9
70636.9
70636.9
70636.9
70636.9
70636.9
70636.9
70636.9
70636.9
70636.7
70636.2
70636.2
70636
70639.5
71339.4
71635.1
71606
71046
70872.1
70718.9
70661.8
70642.9
70638.1
70637.1
70637
70636.9
70636.9
70636.9
70636.9
70636.9
70636.9
70636.9
70636.9
70636.9
70636.9
70636.9
70636.9
70636.9
70636.9
70636.8
70636.6
70635.9
70636.6
70638.1
71376.1
71570.1
71572.7
70998.5
70850.4
70710.1
70659.3
70642.3
70637.9
70637.1
70636.9
70636.9
70636.9
70636.9
70636.9
70636.9
70636.9
70636.9
70636.9
70636.9
70636.9
70636.9
70636.9
70636.9
70636.9
70636.8
70636.8
70636.7
70636.9
70637.5
71390.1
71467.8
71506.8
70962.2
70832.3
70704.2
70657.3
70641.7
70637.8
70637.1
70636.9
70636.9
70636.9
70636.9
70636.9
70636.9
70636.9
70636.9
70636.9
70636.9
70636.9
70636.9
70636.9
70636.9
70636.9
70636.9
70636.9
70636.9
70637
70637.3
71397.8
71385.3
71430.1
70936.6
70817.5
70699.1
70655.5
70641.2
70637.7
70637
70636.9
70636.9
70636.9
70636.9
70636.9
70636.9
70636.9
70636.9
70636.9
70636.9
70636.9
70636.9
70636.9
70636.9
70636.9
70636.9
70636.9
70636.9
70637
70637.3
71322.1
71325.4
71362
70915.3
70803.7
70694.1
70653.8
70640.7
70637.6
70637
70636.9
70636.9
70636.9
70636.9
70636.9
70636.9
70636.9
70636.9
70636.9
70636.9
70636.9
70636.9
70636.9
70636.9
70636.9
70636.9
70636.9
70636.9
70637
70637.3
71246.6
71273.8
71298.9
70893.5
70790
70689.2
70652.2
70640.3
70637.5
70637
70636.9
70636.9
70636.9
70636.9
70636.9
70636.9
70636.9
70636.9
70636.9
70636.9
70636.9
70636.9
70636.9
70636.9
70636.9
70636.9
70636.9
70636.9
70637
70637.2
71193.5
71219.2
71238.5
70871.3
70776.9
70684.6
70650.8
70639.9
70637.4
70637
70636.9
70636.9
70636.9
70636.9
70636.9
70636.9
70636.9
70636.9
70636.9
70636.9
70636.9
70636.9
70636.9
70636.9
70636.9
70636.9
70636.9
70636.9
70637
70637.2
71141.3
71165.1
71181.2
70849.9
70764.4
70680.2
70649.5
70639.6
70637.4
70637
70636.9
70636.9
70636.9
70636.9
70636.9
70636.9
70636.9
70636.9
70636.9
70636.9
70636.9
70636.9
70636.9
70636.9
70636.9
70636.9
70636.9
70636.9
70637
70637.2
71089.7
71114
71127
70829.6
70752.5
70676
70648.2
70639.3
70637.3
70637
70636.9
70636.9
70636.9
70636.9
70636.9
70636.9
70636.9
70636.9
70636.9
70636.9
70636.9
70636.9
70636.9
70636.9
70636.9
70636.9
70636.9
70637
70637
70637.2
71040.9
71065.6
71076.2
70810
70741.1
70672
70647
70639
70637.3
70637
70636.9
70636.9
70636.9
70636.9
70636.9
70636.9
70636.9
70636.9
70636.9
70636.9
70636.9
70636.9
70636.9
70636.9
70636.9
70636.9
70636.9
70637
70637
70637.1
70995.7
71019.3
71027.9
70791
70730
70668
70645.8
70638.8
70637.2
70637
70636.9
70636.9
70636.9
70636.9
70636.9
70636.9
70636.9
70636.9
70636.9
70636.9
70636.9
70636.9
70636.9
70636.9
70636.9
70636.9
70636.9
70637
70637
70637.1
70953.2
70973.2
70981.2
70772.3
70719.1
70664.2
70644.7
70638.5
70637.2
70637
70636.9
70636.9
70636.9
70636.9
70636.9
70636.9
70636.9
70636.9
70636.9
70636.9
70636.9
70636.9
70636.9
70636.9
70636.9
70636.9
70636.9
70637
70637
70637.1
70909
70924.4
70934.5
70753.2
70708.3
70660.5
70643.6
70638.3
70637.1
70637
70636.9
70636.9
70636.9
70636.9
70636.9
70636.9
70636.9
70636.9
70636.9
70636.9
70636.9
70636.9
70636.9
70636.9
70636.9
70636.9
70636.9
70637
70637
70637.1
70861.1
70869.3
70885.5
70732.5
70697
70656.6
70642.5
70638
70637.1
70637
70636.9
70636.9
70636.9
70636.9
70636.9
70636.9
70636.9
70636.9
70636.9
70636.9
70636.9
70636.9
70636.9
70636.9
70636.9
70636.9
70636.9
70637
70637
70637.1
70817.5
70809.9
70834.2
70708.6
70684.3
70652.4
70641.3
70637.8
70637.1
70636.9
70636.9
70636.9
70636.9
70636.9
70636.9
70636.9
70636.9
70636.9
70636.9
70636.9
70636.9
70636.9
70636.9
70636.9
70636.9
70636.9
70636.9
70637
70637
70637.1
70793.8
70756.9
70786.1
70682.5
70670.2
70647.5
70640
70637.5
70637
70636.9
70636.9
70636.9
70636.9
70636.9
70636.9
70636.9
70636.9
70636.9
70636.9
70636.9
70636.9
70636.9
70636.9
70636.9
70636.9
70636.9
70637
70637
70637
70637.1
70777.9
70714.2
70749.2
70657.6
70656.5
70642.1
70638.4
70637.2
70637
70636.9
70636.9
70636.9
70636.9
70636.9
70636.9
70636.9
70636.9
70636.9
70636.9
70636.9
70636.9
70636.9
70636.9
70636.9
70636.9
70636.9
70637
70637
70637
70637.1
70750.7
70674.4
70720.2
70636
70645.2
70636.9
70636.7
70636.8
70636.9
70636.9
70636.9
70636.9
70636.9
70636.9
70636.9
70636.9
70636.9
70636.9
70636.9
70636.9
70636.9
70636.9
70636.9
70636.9
70636.9
70636.9
70637
70637
70637
70637.1
70735.8
70635.8
70694.8
70617.7
70636.6
70632.9
70635.5
70636.6
70636.9
70636.9
70636.9
70636.9
70636.9
70636.9
70636.9
70636.9
70636.9
70636.9
70636.9
70636.9
70636.9
70636.9
70636.9
70636.9
70636.9
70636.9
70637
70637
70637.1
70637.2
70660.2
70616.4
70638.4
70634.1
70635.9
70636.6
70636.9
70636.9
70636.9
70636.9
70636.9
70636.9
70636.9
70636.9
70636.9
70636.9
70636.9
70636.9
70636.9
70637
70637.3
70639
70645.7
70666.3
70719.8
70841
71048.9
71406.1
71342.5
71387.1
70652.6
70624.2
70638.3
70634.4
70635.8
70636.6
70636.9
70636.9
70636.9
70636.9
70636.9
70636.9
70636.9
70636.9
70636.9
70636.9
70636.9
70636.9
70636.9
70637
70637.3
70639.1
70646.5
70669.7
70729.9
70864
71079.8
71461
71397.3
71293.2
70646.7
70630.4
70637.7
70635.1
70635.9
70636.6
70636.9
70636.9
70636.9
70636.9
70636.9
70636.9
70636.9
70636.9
70636.9
70636.9
70636.9
70636.9
70636.9
70637
70637.3
70639
70646.2
70669.5
70731.4
70876.9
71093.7
71524.6
71488.7
71223.9
70643.9
70633.3
70636.8
70635.7
70636.1
70636.7
70636.9
70636.9
70636.9
70636.9
70636.9
70636.9
70636.9
70636.9
70636.9
70636.9
70636.9
70636.9
70636.9
70637
70637.2
70638.8
70645.7
70669
70731.5
70885.5
71098.1
71578
71580.4
71201.6
70641.8
70635
70636.5
70635.9
70636.4
70636.8
70636.9
70636.9
70636.9
70636.9
70636.9
70636.9
70636.9
70636.9
70636.9
70636.9
70636.9
70636.9
70636.9
70637
70637.2
70638.5
70644.9
70667.8
70730.1
70886
71092.4
71615.2
71637.6
71196.9
70639.5
70636
70636.2
70636.2
70636.7
70636.9
70636.9
70636.9
70636.9
70636.9
70636.9
70636.9
70636.9
70636.9
70636.9
70636.9
70636.9
70636.9
70636.9
70637
70637.1
70638.2
70643.8
70665.2
70726.4
70881.4
71075.3
71616
71647.1
71238.4
70638.1
70636.6
70635.9
70636.6
70636.8
70636.9
70636.9
70636.9
70636.9
70636.9
70636.9
70636.9
70636.9
70636.9
70636.9
70636.9
70636.9
70636.9
70636.9
70637
70637.1
70638.1
70642.9
70661.8
70718.9
70872.2
71046.1
71606.1
71634.9
71338.8
70637.5
70636.9
70636.7
70636.8
70636.8
70636.9
70636.9
70636.9
70636.9
70636.9
70636.9
70636.9
70636.9
70636.9
70636.9
70636.9
70636.9
70636.9
70636.9
70636.9
70637.1
70637.9
70642.3
70659.3
70710.1
70850.4
70998.5
71572.8
71569.8
71377.1
70637.3
70637
70636.9
70636.9
70636.9
70636.9
70636.9
70636.9
70636.9
70636.9
70636.9
70636.9
70636.9
70636.9
70636.9
70636.9
70636.9
70636.9
70636.9
70636.9
70637.1
70637.8
70641.7
70657.3
70704.2
70832.3
70962.2
71506.8
71467.8
71390
70637.3
70637
70636.9
70636.9
70636.9
70636.9
70636.9
70636.9
70636.9
70636.9
70636.9
70636.9
70636.9
70636.9
70636.9
70636.9
70636.9
70636.9
70636.9
70636.9
70637
70637.7
70641.2
70655.5
70699.1
70817.5
70936.7
71430
71385.4
71397.7
70637.3
70637
70636.9
70636.9
70636.9
70636.9
70636.9
70636.9
70636.9
70636.9
70636.9
70636.9
70636.9
70636.9
70636.9
70636.9
70636.9
70636.9
70636.9
70636.9
70637
70637.6
70640.7
70653.8
70694.1
70803.7
70915.3
71362.1
71325.2
71322.1
70637.2
70637
70636.9
70636.9
70636.9
70636.9
70636.9
70636.9
70636.9
70636.9
70636.9
70636.9
70636.9
70636.9
70636.9
70636.9
70636.9
70636.9
70636.9
70636.9
70637
70637.5
70640.3
70652.2
70689.2
70790
70893.4
71298.8
71273.8
71246.3
70637.2
70637
70636.9
70636.9
70636.9
70636.9
70636.9
70636.9
70636.9
70636.9
70636.9
70636.9
70636.9
70636.9
70636.9
70636.9
70636.9
70636.9
70636.9
70636.9
70637
70637.4
70639.9
70650.8
70684.6
70776.9
70871.3
71238.6
71219.4
71193.8
70637.2
70637
70636.9
70636.9
70636.9
70636.9
70636.9
70636.9
70636.9
70636.9
70636.9
70636.9
70636.9
70636.9
70636.9
70636.9
70636.9
70636.9
70636.9
70636.9
70637
70637.4
70639.6
70649.5
70680.2
70764.4
70849.9
71181.2
71165.2
71140.8
70637.2
70637
70637
70636.9
70636.9
70636.9
70636.9
70636.9
70636.9
70636.9
70636.9
70636.9
70636.9
70636.9
70636.9
70636.9
70636.9
70636.9
70636.9
70636.9
70637
70637.3
70639.3
70648.2
70676
70752.5
70829.6
71127
71114
71090
70637.1
70637
70637
70636.9
70636.9
70636.9
70636.9
70636.9
70636.9
70636.9
70636.9
70636.9
70636.9
70636.9
70636.9
70636.9
70636.9
70636.9
70636.9
70636.9
70637
70637.3
70639
70647
70672
70741.1
70810
71076.2
71065.7
71041.3
70637.1
70637
70637
70636.9
70636.9
70636.9
70636.9
70636.9
70636.9
70636.9
70636.9
70636.9
70636.9
70636.9
70636.9
70636.9
70636.9
70636.9
70636.9
70636.9
70637
70637.2
70638.8
70645.8
70668.1
70730
70791
71027.9
71019.2
70995.4
70637.1
70637
70637
70636.9
70636.9
70636.9
70636.9
70636.9
70636.9
70636.9
70636.9
70636.9
70636.9
70636.9
70636.9
70636.9
70636.9
70636.9
70636.9
70636.9
70637
70637.2
70638.5
70644.7
70664.2
70719.1
70772.2
70981.1
70973.2
70953.2
70637.1
70637
70637
70636.9
70636.9
70636.9
70636.9
70636.9
70636.9
70636.9
70636.9
70636.9
70636.9
70636.9
70636.9
70636.9
70636.9
70636.9
70636.9
70636.9
70637
70637.1
70638.3
70643.6
70660.5
70708.3
70753.2
70934.5
70924.5
70909.4
70637.1
70637
70637
70636.9
70636.9
70636.9
70636.9
70636.9
70636.9
70636.9
70636.9
70636.9
70636.9
70636.9
70636.9
70636.9
70636.9
70636.9
70636.9
70636.9
70637
70637.1
70638
70642.5
70656.7
70697
70732.5
70885.6
70869.3
70860.9
70637.1
70637
70637
70636.9
70636.9
70636.9
70636.9
70636.9
70636.9
70636.9
70636.9
70636.9
70636.9
70636.9
70636.9
70636.9
70636.9
70636.9
70636.9
70636.9
70636.9
70637.1
70637.8
70641.3
70652.4
70684.3
70708.6
70834.2
70809.9
70817.2
70637.1
70637
70637
70637
70636.9
70636.9
70636.9
70636.9
70636.9
70636.9
70636.9
70636.9
70636.9
70636.9
70636.9
70636.9
70636.9
70636.9
70636.9
70636.9
70636.9
70637
70637.5
70640
70647.5
70670.2
70682.5
70786.1
70756.6
70793.8
70637.1
70637
70637
70637
70636.9
70636.9
70636.9
70636.9
70636.9
70636.9
70636.9
70636.9
70636.9
70636.9
70636.9
70636.9
70636.9
70636.9
70636.9
70636.9
70636.9
70637
70637.2
70638.4
70642.1
70656.4
70657.6
70749
70714.3
70778.1
70637.1
70637
70637
70637
70636.9
70636.9
70636.9
70636.9
70636.9
70636.9
70636.9
70636.9
70636.9
70636.9
70636.9
70636.9
70636.9
70636.9
70636.9
70636.9
70636.9
70636.9
70636.8
70636.7
70636.9
70645.2
70636
70720.2
70674.4
70750.9
70637.2
70637.1
70637
70637
70636.9
70636.9
70636.9
70636.9
70636.9
70636.9
70636.9
70636.9
70636.9
70636.9
70636.9
70636.9
70636.9
70636.9
70636.9
70636.9
70636.9
70636.9
70636.6
70635.5
70632.9
70636.6
70617.7
70694.9
70635.8
70736.1
70637.1
70637.1
70637.1
70637.1
70637.1
70637.1
70637.1
70637.1
70637.1
70637.1
70637.1
70637.1
70637.1
70637.1
70637.1
70637.1
70637.1
70637.1
70637.1
70637.1
70637.1
70637.1
70637.1
70637.1
70637.1
70637.1
70637.1
70637.1
70637.1
70637.1
70637.1
70637.1
70637.1
70637.1
70637.1
70637.1
70637.1
70637.1
70637.1
70637.1
70637.1
70637.1
70637.1
70637.1
70637.1
70637.1
70637.1
70637.1
70637.1
70637.1
70637.1
70637.1
70637.1
70637.1
70637.1
70637.1
70637.1
70637.1
70637.1
70637.1
70637.1
70637.1
70637.1
70637.1
70637.1
70637.1
70637.1
70637.1
70637.1
70637.1
70637.1
70637.1
70637.1
70637.1
70637.1
70637.1
70637.1
70637.1
70637.1
70637.1
70637.1
70637.1
70637.1
70637.1
70637.1
70637.1
70637.1
70637.1
70637.1
70637.1
70637.1
70637.1
70637.1
70637.1
70637.1
70637.1
70637.1
70637.1
70637.1
70637.1
70637.1
70637.1
70637.1
70637.1
70637.1
70637.1
70637.1
70637.1
70637.1
70637.1
70637.1
70637.1
70637.1
70637.1
70637.1
70637.1
70637.1
70637.1
70637.1
70637.1
70637.1
70637.1
70637.1
70637.2
70637.2
70637
70637
70637
70637
70637
70637
70637
70637
70637
70637
70637
70637
70637
70637
70637
70637
70637
70637
70637
70637
70637
70637
70637
70637
70637
70637
70637
70637
70637
70637
70637
70637
70637
70637
70637
70637
70637
70637
70637
70637
70637
70637
70637
70637
70637
70637
70637
70637
70637
70637
70637
70637
70637
70637
70637
70637
70637
70637
70637
70637
70637
70637
70637
70637
70637
70637
70637
70637
70637
70637
70637
70637
70637
70637
70637
70637
70637
70637
70637
70637
70637
70637
70637
70637
70637
70637
70637
70637
70637
70637
70637
70637
70637
70637
70637
70637
70637
70637
70637
70637
70637
70637
70637
70637
70637
70637
70637
70637
70637
70637
70637
70637
70637
70637
70637
70637
70637
70637
70637
70637
70637
70637
70637.1
70637.1
70637.1
70637
70637
70637
70637
70637
70637
70637
70637
70637
70637
70637
70637
70637
70637
70637
70637
70637
70637
70637
70637
70637
70637
70637
70637
70637
70637
70637
70637
70637
70637
70637
70637
70637
70637
70637
70637
70637
70637
70637
70637
70637
70637
70637
70637
70637
70637
70637
70637
70637
70637
70637
70637
70637
70637
70637
70637
70637
70637
70637
70637
70637
70637
70637
70637
70637
70637
70637
70637
70637
70637
70637
70637
70637
70637
70637
70637
70637
70637
70637
70637
70637
70637
70637
70637
70637
70637
70637
70637
70637
70637
70637
70637
70637
70637
70637
70637
70637
70637
70637
70637
70637
70637
70637
70637
70637
70637
70637
70637
70637
70637
70637
70637
70637
70637
70637
70637
70637
70637
70637
70637
70637
70637
70637
70637
70637
70637
70637
70637
70637
70637
70637
70637
70637
70637
70637
70637
70637
70637
70637
70637
70637
70637
70637
70637
70637
70637
70637
70637
70637
70637
70637
70637
70637
70637
70637
70637
70637
70637
70637
70637
70637
70637
70637
70637
70637
70637
70637
70637
70637
70637
70637
70637
70637
70637
70637
70637
70637
70637
70637
70637
70637
70637
70637
70637
70637
70637
70637
70637
70637
70637
70637
70637
70637
70637
70637
70637
70637
70637
70637
70637
70637
70637
70637
70637
70637
70637
70637
70637
70637
70637
70637
70637
70637
70637
70637
70637
70637
70637
70637
70637
70637
70637
70637
70637
70637
70637
70637
70637
70637
70637
70637
70637
70637
70637
70637
70637
70637
70637
70637
70637
70636.9
70636.9
70636.9
70637
70637
70637
70637
70637
70637
70637
70636.9
70636.9
70636.9
70636.9
70636.9
70636.9
70636.9
70636.9
70636.9
70636.9
70636.9
70636.9
70636.9
70636.9
70636.9
70636.9
70636.9
70636.9
70636.9
70636.9
70636.9
70636.9
70636.9
70636.9
70636.9
70636.9
70636.9
70636.9
70636.9
70636.9
70636.9
70636.9
70636.9
70636.9
70636.9
70636.9
70636.9
70636.9
70636.9
70636.9
70636.9
70636.9
70636.9
70636.9
70636.9
70636.9
70636.9
70636.9
70636.9
70636.9
70636.9
70636.9
70636.9
70636.9
70636.9
70636.9
70636.9
70636.9
70636.9
70636.9
70636.9
70636.9
70636.9
70636.9
70636.9
70636.9
70636.9
70636.9
70636.9
70636.9
70636.9
70636.9
70636.9
70636.9
70636.9
70636.9
70636.9
70636.9
70636.9
70636.9
70636.9
70636.9
70636.9
70636.9
70636.9
70636.9
70636.9
70636.9
70636.9
70636.9
70636.9
70636.9
70636.9
70636.9
70636.9
70636.9
70636.9
70636.9
70636.9
70636.9
70636.9
70636.9
70636.9
70636.9
70636.9
70636.9
70636.9
70636.9
70636.9
70636.9
70636.9
70636.9
70636.9
70636.9
70636.9
70636.9
70636.9
70636.9
70636.9
70636.9
70636.9
70636.9
70636.9
70636.9
70636.9
70636.9
70636.9
70636.9
70636.9
70636.9
70636.9
70636.9
70636.9
70636.9
70636.9
70636.9
70636.9
70636.9
70636.9
70636.9
70636.9
70636.9
70636.9
70636.9
70636.9
70636.9
70636.9
70636.9
70636.9
70636.9
70636.9
70636.9
70636.9
70636.9
70636.9
70636.9
70636.9
70636.9
70636.9
70636.9
70636.9
70636.9
70636.9
70636.9
70636.9
70636.9
70636.9
70636.9
70636.9
70636.9
70636.9
70636.9
70636.9
70636.9
70636.9
70636.9
70636.9
70636.9
70636.9
70636.9