/*--------------------------------*- C++ -*----------------------------------*\
| =========                 |                                                 |
| \\      /  F ield         | OpenFOAM: The Open Source CFD Toolbox           |
|  \\    /   O peration     | Version:  2112                                  |
|   \\  /    A nd           | Website:  www.openfoam.com                      |
|    \\/     M anipulation  |                                                 |
\*---------------------------------------------------------------------------*/
FoamFile
{
    version     2.0;
    format      ascii;
    arch        "LSB;label=32;scalar=64";
    class       volScalarField;
    location    "0.00517";
    object      p;
}
// * * * * * * * * * * * * * * * * * * * * * * * * * * * * * * * * * * * * * //

dimensions      [1 -1 -2 0 0 0 0];

internalField   nonuniform List<scalar> 
13875
(
951590
984307
973588
975946
973643
974598
974937
974644
974941
975065
975067
975045
974648
974776
974454
974476
974862
975121
975169
974443
973304
975542
972332
982642
945166
733801
659582
672197
677230
669257
669671
677112
678733
679200
679361
679093
678430
670157
669349
670327
678210
679852
679646
677586
669946
669536
676856
672170
657441
730608
736891
635551
664291
653619
649231
647944
647770
649013
649910
649919
649710
649087
645511
645390
645188
646125
646501
648622
648129
647906
648683
652143
662021
632240
733337
743535
636195
665174
653778
649538
648115
646980
646915
646521
645636
644526
645052
645564
645481
645218
643567
643509
645049
646656
648082
648973
652267
662777
632842
739041
757367
639201
667726
654487
650400
648603
647177
647096
646575
645680
644469
645085
645734
645718
645336
643667
643613
645101
646760
648571
649772
652858
665082
635481
750279
759048
647854
673491
656460
652206
649633
647755
647602
646774
645838
644640
645228
646083
646167
645588
643947
643906
645327
647143
649591
651475
654734
670695
643224
751913
765054
668352
685716
661377
655874
651724
648971
648345
647255
646231
645146
645655
646730
646813
646100
644526
644591
646040
648263
651725
655140
660364
682274
665980
756208
791225
718360
711636
674729
663690
656213
651547
649882
648400
647250
646245
646617
648008
648130
647272
645790
646033
647628
650667
655949
662547
673237
707350
715685
782590
908605
827857
766501
704424
679319
665087
656707
653084
650919
649569
648594
648781
650585
650808
649803
648491
649064
651063
655609
664213
677237
701092
760611
823997
911243
1.52373e+06
1.02923e+06
833625
739730
698195
676217
664282
658665
655821
654291
653489
653496
655701
656112
655135
654147
654966
657305
663166
675243
696261
736769
829766
1.02695e+06
1.52135e+06
2.90432e+06
1.39191e+06
957443
797451
727822
694237
677780
669759
665964
664161
663404
663130
665485
666307
665772
665416
666452
669296
676430
691989
723547
789020
940369
1.3521e+06
2.86779e+06
5.60139e+06
2.34349e+06
1.28777e+06
939824
794235
733456
706585
693960
688143
685462
684264
683721
685680
687194
687688
688530
690561
695271
706298
731387
789769
927775
1.25322e+06
2.27305e+06
5.57987e+06
5.38767e+06
4.84085e+06
2.31328e+06
1.40584e+06
989837
839486
778499
753193
741592
736011
733329
732229
733034
735378
737816
741191
746501
757500
781964
844263
996710
1.39081e+06
2.20017e+06
4.87119e+06
5.34558e+06
4.84233e+06
4.65023e+06
4.71753e+06
3.9979e+06
1.66695e+06
1.16665e+06
988640
921646
891474
875381
867476
863956
862974
866167
872258
882514
899650
933332
1.00805e+06
1.2256e+06
1.8563e+06
4.10503e+06
4.70152e+06
4.70209e+06
4.76076e+06
4.01308e+06
4.12351e+06
4.53039e+06
4.35313e+06
4.09959e+06
2.58331e+06
1.77386e+06
1.5188e+06
1.41312e+06
1.35879e+06
1.33212e+06
1.32064e+06
1.3178e+06
1.3211e+06
1.33204e+06
1.3582e+06
1.41291e+06
1.5232e+06
1.7883e+06
2.74829e+06
4.19061e+06
4.31228e+06
4.53912e+06
4.26796e+06
4.24992e+06
3.55038e+06
3.5177e+06
3.9896e+06
4.19241e+06
4.53894e+06
4.66955e+06
3.99376e+06
3.51589e+06
3.32158e+06
3.18161e+06
3.08088e+06
3.0319e+06
3.0142e+06
3.02258e+06
3.05815e+06
3.14968e+06
3.29934e+06
3.47895e+06
3.99607e+06
4.68487e+06
4.46139e+06
4.17212e+06
4.09163e+06
3.62806e+06
3.76506e+06
2.59454e+06
2.73473e+06
3.17236e+06
3.74805e+06
4.70527e+06
5.75852e+06
7.87688e+06
8.84775e+06
9.27947e+06
9.50267e+06
9.63972e+06
9.6865e+06
9.7147e+06
9.69756e+06
9.66088e+06
9.53174e+06
9.33464e+06
8.90737e+06
7.98066e+06
5.90935e+06
4.75302e+06
3.7291e+06
3.21344e+06
2.85438e+06
2.74146e+06
1.55597e+06
1.87698e+06
2.54755e+06
3.75037e+06
4.94088e+06
6.30725e+06
7.58828e+06
7.90364e+06
7.72796e+06
7.65483e+06
7.52255e+06
7.44374e+06
7.41817e+06
7.44262e+06
7.54318e+06
7.70782e+06
7.84439e+06
7.9891e+06
7.65722e+06
6.32852e+06
4.98377e+06
3.68369e+06
2.37655e+06
1.73957e+06
1.43782e+06
715154
1.1138e+06
2.01623e+06
3.56215e+06
4.85152e+06
5.65828e+06
5.94833e+06
5.9109e+06
5.86481e+06
5.8967e+06
5.93421e+06
5.96948e+06
5.99034e+06
5.98613e+06
5.95854e+06
5.93208e+06
5.91611e+06
5.99944e+06
6.10017e+06
5.81297e+06
4.9823e+06
3.66954e+06
2.04898e+06
1.12996e+06
722442
339189
610193
1.34097e+06
3.04823e+06
4.032e+06
4.34011e+06
4.49783e+06
4.72796e+06
4.94378e+06
5.11608e+06
5.23263e+06
5.29261e+06
5.3141e+06
5.30139e+06
5.24129e+06
5.11908e+06
4.94482e+06
4.74106e+06
4.53664e+06
4.38331e+06
4.06662e+06
3.12159e+06
1.37815e+06
620349
339134
662048
748970
1.23683e+06
2.23449e+06
2.92143e+06
3.2571e+06
3.54725e+06
3.91668e+06
4.25919e+06
4.50316e+06
4.63849e+06
4.70271e+06
4.72152e+06
4.70094e+06
4.63081e+06
4.48153e+06
4.21508e+06
3.8591e+06
3.50081e+06
3.24809e+06
2.90705e+06
2.18487e+06
1.22132e+06
778674
741386
1.31792e+06
1.11048e+06
1.23115e+06
1.574e+06
2.16049e+06
2.50645e+06
2.90971e+06
3.3352e+06
3.68421e+06
3.92107e+06
4.05336e+06
4.11852e+06
4.13651e+06
4.10893e+06
4.03341e+06
3.88818e+06
3.63337e+06
3.26882e+06
2.82753e+06
2.46091e+06
2.13786e+06
1.53247e+06
1.21164e+06
1.18197e+06
1.29584e+06
1.30674e+06
1.27444e+06
1.21973e+06
1.27341e+06
1.68285e+06
1.99374e+06
2.46612e+06
2.87191e+06
3.18004e+06
3.39343e+06
3.51341e+06
3.57751e+06
3.59525e+06
3.56497e+06
3.48839e+06
3.35373e+06
3.12933e+06
2.81756e+06
2.3873e+06
1.94042e+06
1.65403e+06
1.25366e+06
1.20149e+06
1.26709e+06
1.2198e+06
1.3545e+06
1.28996e+06
1.18609e+06
1.17884e+06
1.42813e+06
1.70167e+06
2.10672e+06
2.46263e+06
2.7349e+06
2.91951e+06
3.0288e+06
3.09143e+06
3.11111e+06
3.07965e+06
3.00565e+06
2.88174e+06
2.68791e+06
2.41187e+06
2.0435e+06
1.65473e+06
1.39421e+06
1.15652e+06
1.16611e+06
1.26063e+06
1.32168e+06
1.45847e+06
1.30824e+06
1.16871e+06
1.13891e+06
1.28663e+06
1.50457e+06
1.82457e+06
2.11237e+06
2.35024e+06
2.51152e+06
2.61398e+06
2.67352e+06
2.69044e+06
2.6653e+06
2.59464e+06
2.48535e+06
2.31302e+06
2.07099e+06
1.77518e+06
1.46602e+06
1.25474e+06
1.11465e+06
1.1469e+06
1.27449e+06
1.48326e+06
1.54638e+06
1.34259e+06
1.17551e+06
1.13679e+06
1.20142e+06
1.35757e+06
1.59915e+06
1.82631e+06
2.02859e+06
2.16696e+06
2.25961e+06
2.30856e+06
2.32564e+06
2.30157e+06
2.24131e+06
2.14137e+06
1.99465e+06
1.7912e+06
1.5647e+06
1.33134e+06
1.17952e+06
1.11392e+06
1.15222e+06
1.29973e+06
1.53791e+06
1.58814e+06
1.39529e+06
1.18519e+06
1.13324e+06
1.14709e+06
1.24857e+06
1.42054e+06
1.5956e+06
1.76365e+06
1.8807e+06
1.96062e+06
2.00286e+06
2.01411e+06
1.99681e+06
1.94317e+06
1.85944e+06
1.73506e+06
1.56508e+06
1.38927e+06
1.22393e+06
1.12476e+06
1.1073e+06
1.16556e+06
1.3614e+06
1.55089e+06
1.62931e+06
1.50766e+06
1.20748e+06
1.12346e+06
1.11043e+06
1.1532e+06
1.27071e+06
1.40484e+06
1.53907e+06
1.63406e+06
1.70483e+06
1.73972e+06
1.75147e+06
1.73448e+06
1.69358e+06
1.61864e+06
1.52031e+06
1.38385e+06
1.24909e+06
1.13857e+06
1.09435e+06
1.10474e+06
1.18486e+06
1.47412e+06
1.58043e+06
1.7159e+06
1.6385e+06
1.24386e+06
1.11471e+06
1.08007e+06
1.08295e+06
1.15181e+06
1.25377e+06
1.3591e+06
1.43549e+06
1.49112e+06
1.52292e+06
1.53119e+06
1.51806e+06
1.48278e+06
1.42181e+06
1.34165e+06
1.2354e+06
1.13506e+06
1.07057e+06
1.0657e+06
1.09484e+06
1.20482e+06
1.53073e+06
1.63983e+06
1.80335e+06
1.70973e+06
1.27674e+06
1.10876e+06
1.04545e+06
1.03508e+06
1.05987e+06
1.12736e+06
1.20378e+06
1.2635e+06
1.31273e+06
1.33694e+06
1.34582e+06
1.33203e+06
1.30525e+06
1.25148e+06
1.19139e+06
1.11136e+06
1.04268e+06
1.02175e+06
1.03018e+06
1.08491e+06
1.24417e+06
1.65486e+06
1.73538e+06
1.82145e+06
1.74982e+06
1.33779e+06
1.10903e+06
1.00932e+06
986068
984992
1.02478e+06
1.07896e+06
1.12484e+06
1.16209e+06
1.1837e+06
1.19011e+06
1.18102e+06
1.15784e+06
1.11748e+06
1.07229e+06
1.01803e+06
974976
976208
995768
1.08314e+06
1.28636e+06
1.70958e+06
1.81035e+06
1.82132e+06
1.75101e+06
1.42226e+06
1.11328e+06
981333
932702
922875
942600
976302
1.00674e+06
1.03698e+06
1.05201e+06
1.05946e+06
1.05087e+06
1.03423e+06
1.00001e+06
969435
934933
912789
922739
966562
1.08635e+06
1.34844e+06
1.73222e+06
1.82701e+06
1.81983e+06
1.7366e+06
1.5123e+06
1.11917e+06
952760
888401
869578
872027
892913
912759
932952
945167
949843
944022
930530
908566
888409
867752
861760
879817
939259
1.09764e+06
1.46261e+06
1.73198e+06
1.82595e+06
1.81547e+06
1.71093e+06
1.59037e+06
1.13817e+06
935077
849651
817362
811807
818266
830104
845110
851650
857334
851338
844115
828306
815408
807325
812164
843352
923100
1.11e+06
1.54496e+06
1.71887e+06
1.8205e+06
1.80462e+06
1.66063e+06
1.59411e+06
1.17498e+06
935493
818387
771550
760463
758557
764175
771803
776720
779745
776489
771591
763050
756645
757396
766317
808689
923534
1.13701e+06
1.58753e+06
1.69242e+06
1.80709e+06
1.77749e+06
1.62705e+06
1.58417e+06
1.21932e+06
938280
793997
732772
712404
706428
705996
709337
710525
713720
709600
708439
704646
704199
709270
727869
786020
928832
1.18895e+06
1.58672e+06
1.63787e+06
1.77776e+06
1.72491e+06
1.57949e+06
1.56841e+06
1.28104e+06
950462
777337
700079
671356
660601
658280
657413
656881
657778
656169
656587
657499
660169
669550
695574
770454
936606
1.2604e+06
1.57064e+06
1.58048e+06
1.72884e+06
1.66193e+06
1.54359e+06
1.53716e+06
1.38329e+06
977711
777628
676979
637007
620185
613040
610263
608763
609910
608249
609694
612191
618366
634428
672986
771154
958928
1.4053e+06
1.53987e+06
1.53344e+06
1.66982e+06
1.62324e+06
1.50821e+06
1.46966e+06
1.37983e+06
1.0096e+06
780761
660968
608827
586348
577465
571873
569876
569482
568983
570650
576450
585264
605692
655509
779076
1.00591e+06
1.40413e+06
1.47855e+06
1.49984e+06
1.61208e+06
1.58286e+06
1.47498e+06
1.39503e+06
1.37146e+06
1.07659e+06
794847
661221
587336
555810
541457
535844
533153
533155
532682
535220
540504
553899
584991
652514
790521
1.07844e+06
1.38569e+06
1.39233e+06
1.47017e+06
1.57397e+06
1.53753e+06
1.44042e+06
1.33473e+06
1.34961e+06
1.20862e+06
825209
664902
574248
532640
515938
506534
503173
501924
502629
505365
514771
531218
570986
655230
817734
1.22495e+06
1.3479e+06
1.32305e+06
1.4452e+06
1.53153e+06
1.50529e+06
1.41099e+06
1.28486e+06
1.30049e+06
1.20583e+06
869271
670725
574302
515833
488960
479029
474395
473416
473304
477916
487371
513045
571194
667274
876370
1.223e+06
1.27285e+06
1.27256e+06
1.41706e+06
1.48793e+06
1.46109e+06
1.38798e+06
1.24401e+06
1.22811e+06
1.19549e+06
962413
689611
577399
507317
473270
456616
450796
448476
450059
455513
473003
505113
573162
686057
979044
1.20399e+06
1.20787e+06
1.23377e+06
1.3877e+06
1.45637e+06
1.41423e+06
1.3563e+06
1.21649e+06
1.16451e+06
1.16958e+06
1.05563e+06
727734
586347
507676
459277
437364
428001
426047
427423
436144
457000
505363
580231
722413
1.04922e+06
1.16382e+06
1.14955e+06
1.20987e+06
1.35766e+06
1.41676e+06
1.38359e+06
1.32585e+06
1.19575e+06
1.11453e+06
1.1136e+06
1.05078e+06
793371
601560
509353
458825
426433
411909
407682
411257
424844
456314
508740
599552
799465
1.0439e+06
1.08891e+06
1.10649e+06
1.19294e+06
1.31835e+06
1.37358e+06
1.34772e+06
1.29218e+06
1.18058e+06
1.07727e+06
1.05222e+06
1.03639e+06
930385
634655
516945
459792
424934
401558
395401
400674
421233
457126
516294
632838
937482
1.02339e+06
1.02631e+06
1.07164e+06
1.17897e+06
1.28252e+06
1.34174e+06
1.30928e+06
1.25229e+06
1.16534e+06
1.05462e+06
1.00383e+06
1.0032e+06
929731
701998
535277
463779
425398
399988
389046
399536
421567
460312
535117
699781
933389
979886
980161
1.05332e+06
1.16331e+06
1.24748e+06
1.30661e+06
1.27128e+06
1.2184e+06
1.14806e+06
1.03857e+06
964690
943663
918606
830574
569425
473180
426777
400299
389432
399959
424198
471118
578230
837991
921062
928944
947642
1.03621e+06
1.14284e+06
1.21052e+06
1.26147e+06
1.19515e+06
1.16938e+06
1.11955e+06
1.02463e+06
937635
894187
893170
829814
641938
495749
432768
402145
391239
401617
431105
494091
662416
836465
891538
889035
926437
1.0219e+06
1.1124e+06
1.1599e+06
1.18209e+06
1.06117e+06
1.09752e+06
1.07705e+06
1.00226e+06
919305
855127
845344
822512
759967
545763
449379
407746
396215
406962
448571
544441
760351
826557
846153
854288
910775
995507
1.06668e+06
1.08875e+06
1.05152e+06
160803
183666
187971
199347
213459
220842
218420
213937
204827
179466
157142
145200
140010
134672
129486
123380
117664
113734
110675
107605
104747
102990
101632
98328.7
94314
91035.8
88654.9
86815.6
85930.6
85241.8
162629
182307
186827
199196
211368
214865
213190
209659
202854
184382
160365
144839
136632
131494
126379
120355
114395
110397
107414
104487
101675
99989.1
99226.1
96429.9
92455.8
89067.4
86678.4
84745.6
83782
83124.1
164246
182448
186628
199162
207738
210753
209718
206325
200531
184933
160744
144646
133296
128627
123445
117628
111405
107330
104386
101533
98771.6
97370.8
96760.8
94498.7
90534.8
87050.3
84667.5
82757.8
81832.8
81064.3
164267
182365
186342
198488
203350
206318
205005
201309
197668
185558
161428
145170
132038
125609
120192
114753
108443
104233
101306
98446.5
95955.6
94737.7
94144.2
92436.1
88531.6
84968
82532.8
80741
79747.2
78983.3
164412
182352
186043
197013
201142
202845
201028
196549
192839
185343
163945
146280
131839
122508
117122
111692
105803
101297
98434
95608
93376.5
92242.4
91683.1
90497.2
86770.3
83159.2
80542.2
78390.3
77371
76504.9
165001
182302
185912
196155
199542
200518
198646
194052
188361
183707
172487
147589
131877
121119
115429
109010
103181
98322.6
95552.8
92908.2
90854.2
89782.8
89241.9
88358.8
84711.4
80894.3
77902.9
75319.3
73774.4
72486.4
166403
182297
186224
195022
197929
197991
196205
191803
185486
182222
174770
151243
132589
120720
114675
107899
100402
95281.1
92291.3
89722.2
87693
86579.8
85936.3
85165.4
81476.9
77573
74341
71475.2
69824
68590.5
169379
182677
187643
193636
194446
195218
193455
188529
182892
180312
175264
160412
134733
120747
114439
107500
97719.9
92414.3
88634
85763.8
83443.2
81970.9
80922.7
79887
76848.9
73603.3
70856.1
68703.6
67487.7
66619.3
173772
185173
188902
192702
191828
191565
190206
185509
180157
177967
175367
166734
137884
121208
114451
107448
96840
90019.9
85205.8
81970
79529.1
78041.5
77009.9
76313.1
73859.8
71062.5
68678.5
66802.8
65732.2
64925.4
179369
187226
189173
190750
190600
189945
187413
182788
178105
175844
174513
168150
140910
122562
115267
107553
96726.8
87920.7
82384.1
78752
76369.3
74956.1
73984.8
73375.4
71372.7
68948.4
66825.7
65161.1
64178.6
63447
184394
188891
189292
190240
189921
188203
184801
181379
176027
173734
173015
168218
146167
125162
116465
108298
96851.9
86877.6
80240.1
76154.1
73862.5
72506.5
71554.1
70913
69218.2
67108.6
65211.2
63697.3
62789.5
62081.5
190618
189865
189119
188379
188555
186786
182138
178245
174251
171050
171028
167570
152481
127783
116962
109730
97770.5
86738.1
78601.6
74137.6
71865.8
70525.5
69547.9
68824.6
67320.6
65484.6
63777.1
62395.7
61536.8
60865.3
192582
191315
188595
188104
188026
185523
179965
174959
171365
168206
168291
166305
154902
128881
117168
111634
99715.3
86919.8
77381.2
72652.2
70252.6
68907.6
67891.3
67067.9
65673.7
64042.1
62486.8
61211.3
60396.7
59742.2
193413
192439
188773
188089
187792
184235
177380
171591
165454
165414
165548
164300
155506
129546
117302
114406
102552
87638.9
76988.4
71600.8
68955.6
67559.3
66492.1
65572.5
64220.4
62731.8
61267.4
60061.2
59267.1
58613.4
193627
192996
189450
188058
187173
180392
173853
165401
162484
163408
162960
161911
155452
130524
117476
117397
106240
89244
77001.2
70894.7
67907.4
66415
65251.5
64237.1
62879.2
61451.7
59992.4
58808.8
57999
57334.1
193580
193243
189739
188091
186631
175861
163786
156493
157890
159325
161053
161093
155471
130917
118086
117854
111214
91947.3
77455.9
70413
67028.4
65397.2
64100.3
62993.9
61574.8
60114.8
58581.6
57388.7
56542.1
55879
192971
193341
190098
187404
185595
172173
157649
151390
153746
157812
159773
161229
155124
130911
119035
117420
121979
96370.5
78708
70311.4
66333.4
64425.3
63019.4
61776.5
60253.1
58704.5
57072.9
55890.9
55023.8
54385.4
192797
193119
190156
185338
180998
165459
154851
149564
151640
157252
160330
163649
153641
130717
120185
117269
128122
104183
81257.5
70566
65743.7
63456.6
61942.1
60517.7
58883
57260.3
55592
54459.7
53596.4
53017.6
190928
191907
189547
182700
176482
162379
154061
149282
151382
158078
163539
166175
150224
130858
121519
117512
128399
122542
86313.4
71543.6
65402
62448.2
60804.3
59198.7
57492.9
55847
54185.8
53147.8
52305.1
51750.9
190684
190829
188189
179972
173669
161175
153984
150693
154202
161435
169179
168634
148795
131708
123083
119108
125613
132418
96578
74242
65356.8
61351.8
59576.7
57802.9
56031.3
54369.6
52743.7
51834.7
51010.1
50510.6
187500
187422
184973
176655
170072
160918
157033
155935
160795
167651
172739
169890
148482
132657
124857
121533
122936
132819
121402
79921
66216.8
60698.6
58104.3
56341.8
54553.1
52870.1
51351.7
50529.6
49688.3
49272.5
187010
185259
180984
172680
165986
161149
159810
161436
167503
171756
173810
169865
149999
134207
126586
123496
122629
129228
130423
92740.4
69445.2
60494.4
56564.1
54757.3
53096
51469.3
50116.5
49348.2
48541.4
48177.4
181377
178052
175468
167065
162897
161265
161043
164947
170357
172907
173528
168993
154343
137499
129008
124887
123329
124116
130296
119265
75681.5
61861.7
56021.7
53034.4
51747.1
50267.4
49055.4
48362.3
47601.6
47264.3
177571
172951
167324
162771
161004
160397
161542
166590
171336
173114
173405
167957
156943
144794
133486
127501
124307
122922
126000
126337
89293.9
65016.3
56274.9
52336.8
50281.3
49201.6
48119.7
47491.8
46775
46468.7
157061
160729
158961
157727
158253
158010
161755
167231
171663
173041
173066
167491
158736
149568
141763
132340
126009
122999
122293
125923
113614
71343.6
57808.7
52152.5
49409
48086
47257.7
46709.8
46021.6
45742.8
85737.1
86447.1
87357.4
89230.7
91601.7
94830
98577.1
101502
102949
104816
107647
110625
113713
117706
123463
129528
134604
139963
145350
159287
184623
206752
213807
217477
219048
211746
197988
186819
182944
161478
83647.7
84324.3
85304.3
87251.3
89622.2
92919.6
96550.3
98997.6
99927.3
101728
104496
107323
110348
114425
120429
126391
131432
136605
145868
161930
186905
203810
209378
212592
213940
209991
197931
185738
181280
161372
81573.6
82361.5
83296
85217
87589.5
90953.7
94500.8
96479.3
97216.1
98832.7
101540
104274
107271
111448
117686
123435
128587
133636
146118
162502
187399
201054
205920
208724
209390
204912
197680
185491
181199
162620
79480.9
80251.4
81224
83021.9
85450.7
88874
92305.7
93798.4
94513.3
95930.7
98543.2
101192
104168
108526
114777
120204
125630
132797
146905
163856
187214
197162
200205
203682
204890
202271
197039
185160
181041
162596
76956.3
77822.3
78851
81000.3
83561.5
87007.8
90262.1
91244.7
91964
93321.4
95765.1
98353.1
101250
105948
111670
117208
122642
132845
148143
170043
186036
191742
195697
199800
201371
199938
196001
184823
180868
162706
72945.9
74249.1
75787.9
78333.6
81262.9
84870.9
88048.1
88760.5
89479.2
90766
93022.2
95477.7
98301.9
103346
109301
115575
121544
132997
149747
174314
183639
187352
193484
197694
199351
198157
194302
184689
180762
163847
69058.6
70296.1
71920.5
74767
77938
81665.9
84832.3
85480.8
86254.3
87521.3
89691.3
92173
95284.5
100460
108269
114877
121281
134048
154888
175261
181581
184596
190828
195060
196570
195916
192614
184787
180746
165590
67051.3
67936.5
69154.3
71289.8
73927.2
76951.5
79679
80650.6
81742.9
83314.9
85703.3
88503.5
92442.3
98032.1
107896
114690
121359
136645
164905
175266
179196
181821
187748
192203
193226
192315
191913
186296
181269
168238
65298.7
66112.6
67176.7
69034.6
71333.5
73927.2
76062
76807.6
77883.8
79463.4
81943.1
85118.8
90034.9
97273
107849
114730
122030
139800
167805
174944
176791
179323
185204
189281
190988
190717
189608
187045
183871
172751
63759.5
64495.5
65465.7
67102.7
69138.8
71366.1
73125
73817.2
74832.6
76344.5
78765.9
82378.3
87902.6
97210
107960
115896
123617
144019
168332
173419
174397
177798
182704
187895
189890
189709
189076
187238
186216
178409
62341.9
63047.5
63937.9
65412.7
67223.2
69158.4
70680.6
71404.2
72393.9
73851.5
76200
80294.4
87143.4
97394.3
108731
116494
126727
150664
168136
171866
172270
175812
181354
183687
187315
188422
188892
187625
187882
184500
61072.6
61740.9
62582.3
63915.9
65538.6
67231.4
68617.7
69412.7
70426.4
71858.9
74188.7
78697.9
87077.5
98430
110158
116908
128570
155323
167137
169700
169865
173542
175884
182130
185938
187708
187785
187780
188847
189261
59899.3
60551.1
61345.7
62572.3
64051.6
65565.2
66882.8
67758.8
68811.7
70238.8
72705.2
77585.9
87342.9
100442
111995
117096
129918
156849
165567
166944
167042
170020
174323
178796
184448
187367
187654
187625
190191
190826
58719.4
59374.3
60153.5
61312
62705.2
64099
65401.8
66355.7
67460.6
68929.9
71677.6
77278.1
88230.9
103293
114867
117212
131217
156878
163329
164340
164447
163924
169988
176285
183047
187222
187664
188220
191785
191306
57387.1
58060.9
58864.1
60009.5
61401.7
62748.3
64072.4
65100.2
66311.1
67866.8
70981.7
77339.2
90022.9
106933
116670
117551
132338
156636
161230
161736
161788
161249
163038
173445
178876
186206
187716
189136
192520
191627
55876.6
56555.4
57407.1
58575.6
60047.1
61431.1
62820.6
63935.1
65271.1
66972.8
70520
77874.5
92920.5
111848
116861
118236
132490
156486
160410
160053
157731
156631
155259
162971
174595
185206
187704
189732
192770
191418
54335.4
54992.6
55873.4
57046
58628.8
60101.2
61591.5
62841
64273.6
66284.4
70446.2
79247.2
97488.6
122454
116436
119130
132382
156245
160458
158659
156085
151822
149769
156403
171337
183607
186709
190090
192818
190714
52944.5
53544.1
54414
55545.4
57181.2
58737.1
60335.1
61768.9
63299.7
65685.9
70748.9
81955.4
105444
126508
116422
120103
131612
155416
162391
159243
155423
149564
147834
153366
164131
179050
184812
190250
192530
190539
51682.5
52249.4
53099.2
54156.2
55774.7
57360.3
59027.8
60649.8
62314.7
65417.1
71849.6
87279
123677
126369
116752
121218
131452
152005
165799
161969
155255
149390
147557
152467
161113
174419
182099
189343
191317
188948
50458.3
50975.6
51804
52743.7
54331.1
55940.1
57676.9
59451.2
61284.7
65409.3
74748.2
98222
130864
123373
118528
122673
131947
150472
169073
167928
158981
152371
148927
152382
159886
171307
179610
187500
190255
188947
49192.9
49638.4
50478.5
51327.1
52856.1
54505.3
56248.3
57989.5
60707.5
66434.6
80674.5
122041
130777
121342
120774
124285
132653
150061
171136
172214
166469
158911
154357
155735
159595
168370
175689
183923
186675
185948
48061.4
48443.2
49262.6
50042.6
51431.5
53057.8
54698.8
56566.3
60558.9
69811.4
94510.1
128831
126575
121218
122427
125983
134267
151284
171134
173573
171055
166030
159636
158312
159749
164258
171579
179714
184573
185507
47129.1
47477.1
48243.1
48945.7
50187.8
51675.7
52996.8
56058.4
62074.6
76369.1
119211
128348
122175
122023
123826
128386
137843
156184
169937
173699
172325
168989
163222
159513
159830
161478
165416
174054
177350
180102
46357.1
46669.7
47378.6
48001.7
49100.2
50154.3
52324.1
56378.5
65413.3
91158
124778
123623
121297
122929
126719
133547
145784
158299
168945
173314
172474
170033
164902
160064
159381
159779
161287
166365
172126
176359
45650.2
45937.8
46614.4
47142.4
47906.5
49352.8
52175.7
58028.2
72062.2
113619
124082
120394
121485
124956
132055
142443
150463
159944
168258
173112
172366
170432
165619
160288
157200
157157
156505
158079
160030
156150
825004
820050
817636
816209
813376
808972
804654
799306
791850
782514
770756
756251
738498
719761
696227
671752
644694
617179
588966
559580
530840
501871
474549
448342
423759
400680
379565
360295
342793
326795
312207
298734
286331
274899
264463
254810
246184
238359
230717
223364
216856
212278
209158
205324
201531
198669
196864
195984
196349
196888
198070
199877
202610
206622
211873
219585
229692
246398
276633
314221
348280
369846
386637
400176
412351
422399
426772
424790
422259
418102
414256
406807
399771
390948
379180
365947
354868
346531
340187
333907
325627
315367
303952
292051
280130
268601
257967
248983
242218
237701
234200
231029
227953
224938
221918
218625
214655
209694
203338
195649
187869
179523
169334
156373
140271
122542
104400
85495.9
68136.5
56146.1
50048.7
46442.7
44370.6
43167.1
42513.5
42020.9
41935.2
41956
42040.8
42236.4
42630.7
43113.7
43654.4
44325.8
44975.3
824520
820996
819284
818369
815677
812080
808251
801716
793361
782253
768443
752038
733169
711905
688098
662908
635024
606427
577478
548467
521757
495972
471072
446743
423714
401881
381631
363033
345890
329935
314831
300491
287757
275923
264426
253975
245042
236995
229409
223091
218406
214009
210553
207737
205467
204024
203437
203658
204188
205566
207763
211195
216211
224295
236484
253050
272584
288721
301656
310409
315423
322077
327701
334552
341663
348211
354439
360184
365702
370838
375763
380557
383482
384776
384235
382853
379606
372779
361198
349918
339649
329428
319422
309788
300468
291487
283063
275310
267796
259656
251044
241853
231989
221455
210337
198832
187200
175693
164775
154691
144741
135255
126860
119193
111885
104769
98335
93105.9
87922.5
78764.9
65279.5
53773.3
48059.7
45123.9
43581.2
42661.2
42335.8
42334.5
42387
42539.3
42870.7
43341.7
43893.7
44575.8
45238.8
825765
822349
820707
819778
817319
815098
811138
804071
793956
780573
763672
744765
723009
699340
673880
647355
619498
592349
564390
537665
510615
484275
460531
438643
418151
399310
381816
365225
349888
336287
323538
311220
299232
287976
277114
266635
257738
248009
239406
232995
227817
223181
219556
216804
214918
214009
214535
215130
216411
219122
223334
230632
240785
259971
280943
289047
294215
298633
301793
304595
305425
307743
310073
312664
315435
318035
319255
319565
320596
322200
321952
322558
324261
326011
326800
326740
325297
320587
311897
304453
296975
289250
281440
273811
266137
258226
249591
240313
231016
221367
211501
201767
192232
182992
174086
165586
157463
149655
142441
135967
129799
123758
117296
111142
105631
100932
96726.6
94079.9
91703.8
89363.9
86698.5
81799.2
69307.6
55254.8
49281.8
46044.7
44369.8
43865.3
43817.7
43807.4
43815
43947.7
44453.3
45210.7
45893.5
828996
826160
824813
823764
821608
819077
813225
805168
793689
779225
761442
740597
717159
691570
663717
635996
606567
577778
549777
522241
496134
471642
448688
427398
408015
390019
373659
358633
344284
330194
315497
304789
295389
285129
276118
268094
261094
254236
247230
240591
235047
230731
227634
225866
226294
226387
226669
228158
229856
232529
239128
250434
271862
293637
297005
298000
300650
304043
304042
303604
303784
304463
306597
305947
306079
305654
304724
303239
301715
297966
293874
291122
289806
287963
286172
283175
276788
269357
262674
256881
250702
244000
237792
231392
224868
218067
211257
203877
195849
188194
180542
173281
166415
159881
153633
147690
142237
137229
132205
127558
123486
119136
114902
109771
104772
100483
97446.7
95231.9
93669.7
92429
91223.9
89891.9
87344.5
82402.3
69980.8
56088
50035.8
47315.6
46133.6
45468.8
45239.7
45220
45282.3
45572.1
46223.2
830520
829696
829419
829274
826633
823626
817200
808156
796159
780112
760973
738054
712344
684656
655339
625499
595951
568331
541289
514502
488729
464374
440595
418588
399582
382584
366304
349608
338332
326209
313866
302802
292875
283596
275314
268103
261956
256301
251008
246358
242499
239622
238230
238521
238768
239130
239665
241123
244013
248243
255681
272651
294539
303501
303643
304468
307812
311727
311485
309718
306171
306182
305929
305041
303546
300765
298832
297048
292955
287687
283099
278326
274381
270745
266271
260882
254643
248080
241854
235769
229374
222946
216731
210409
204309
198197
192328
186561
180575
174295
167903
161574
155691
150211
145124
140330
135836
131816
128159
124374
120886
117748
114188
111018
107734
104461
101357
98608.2
96304.3
94522.9
93288.1
92375.4
91564.2
90648.4
88803.6
84691.3
72651.6
57753.6
52176.9
49285.7
47792.6
47035.5
46794.4
46781.4
47084.9
833203
832996
833322
833438
831270
829251
823259
814313
801673
784052
761436
736066
707892
677262
647420
618665
587515
557884
530944
505628
480906
456976
434698
414628
394178
378304
364059
349486
336712
325049
313639
302904
293444
284703
276700
269773
263985
259201
255207
251949
249680
249155
249210
249903
250489
250962
252371
254671
257651
263343
275139
293530
303280
306505
307597
308782
310996
315350
318073
317616
316128
315096
312958
308570
302373
299500
297479
294112
289158
284000
278487
273036
267406
262470
256585
250640
244681
238784
232806
226522
220087
213772
207442
201028
194794
188991
183530
178443
173315
167877
162362
156589
151127
146099
141508
137335
133410
129760
126546
123553
120229
117149
114920
113113
111153
108754
106018
103173
100450
97970.5
95852.8
94275.1
93516
93345.5
93160.9
92693.9
91583.4
88630.5
77163.8
60504.6
54196.4
51209.5
49734.5
49114.8
49066.6
838527
838444
838507
838551
837823
835808
829603
821684
807709
788665
761285
733853
703991
669785
635342
602515
573829
546028
517630
490580
465648
442189
419955
403458
387907
372271
357668
344374
332104
321374
311625
302689
294769
287499
280912
275165
270324
266413
263444
261563
261936
262163
262289
263498
264306
264963
267179
269674
273048
279957
290142
301358
307868
310677
312505
315104
318907
324223
328205
328116
327285
325138
322974
318506
310764
304781
299297
293381
288306
282167
276279
270942
264764
258497
252062
245935
240213
234744
228939
222550
215983
209597
203079
196631
190340
184616
179366
174511
169697
164669
159740
154658
149503
144666
140221
136216
132667
129295
126118
123330
120922
118587
116285
114356
112910
111466
109687
107562
105223
102810
100441
98182
96401.4
95600.2
95505.9
95546
95623.9
95958.3
95750.7
93371.6
79864
62815.4
56771.8
54095.2
52649.4
854552
854051
853915
853863
853716
852046
845330
837431
816979
793667
763240
728325
690118