/*--------------------------------*- C++ -*----------------------------------*\
| =========                 |                                                 |
| \\      /  F ield         | OpenFOAM: The Open Source CFD Toolbox           |
|  \\    /   O peration     | Version:  2112                                  |
|   \\  /    A nd           | Website:  www.openfoam.com                      |
|    \\/     M anipulation  |                                                 |
\*---------------------------------------------------------------------------*/
FoamFile
{
    version     2.0;
    format      ascii;
    arch        "LSB;label=32;scalar=64";
    class       volScalarField;
    location    "0.00979";
    object      alphat;
}
// * * * * * * * * * * * * * * * * * * * * * * * * * * * * * * * * * * * * * //

dimensions      [1 -1 -1 0 0 0 0];

internalField   nonuniform List<scalar> 
13875
(
0.119861
0.0816032
0.0784514
0.0782956
0.0783186
0.0783769
0.0782796
0.078296
0.0783041
0.0782828
0.0782861
0.0783106
0.0783865
0.0784113
0.0783938
0.0782972
0.0782557
0.0782951
0.0783037
0.0783544
0.0783208
0.078266
0.0784868
0.0814912
0.120919
0.103938
0.0576789
0.0570788
0.0571655
0.0566519
0.0566698
0.0570479
0.0571501
0.0571705
0.0571455
0.0571192
0.0571203
0.056661
0.0566152
0.0566677
0.0570972
0.0571185
0.0571521
0.0570736
0.0566794
0.0566746
0.0571391
0.0570682
0.0573586
0.104477
0.110619
0.0553256
0.0558755
0.0547241
0.0545831
0.0544878
0.0543147
0.0543948
0.0543894
0.0543154
0.0542252
0.0543406
0.054253
0.0542778
0.0542404
0.0543494
0.054108
0.0542522
0.0542806
0.05445
0.0545301
0.0546027
0.0557861
0.0550647
0.111214
0.115886
0.0546453
0.0553818
0.0543144
0.0540488
0.0539427
0.0537298
0.0536363
0.053564
0.0534715
0.0534033
0.0534786
0.0537068
0.0537411
0.0536927
0.053483
0.053364
0.0534622
0.0536337
0.0539047
0.053999
0.0542032
0.0551953
0.0542858
0.115898
0.121034
0.0546347
0.055121
0.0537422
0.0536742
0.053509
0.0532153
0.0531316
0.0530641
0.0529796
0.0529113
0.0529877
0.053225
0.0532654
0.0532155
0.0529943
0.0528763
0.0529542
0.0531088
0.0534736
0.053607
0.0536126
0.0550199
0.054325
0.121467
0.12441
0.0547456
0.0551889
0.0536039
0.0533026
0.0530991
0.0528316
0.0526953
0.05263
0.0525494
0.0524668
0.0525359
0.052781
0.0528496
0.0527663
0.0525392
0.0524473
0.0525451
0.0527323
0.0530514
0.0532377
0.0535053
0.0548825
0.0543908
0.124107
0.128749
0.0564758
0.0557852
0.0534555
0.0532758
0.0528987
0.0524463
0.0523091
0.0522357
0.0521628
0.0520822
0.0521545
0.0524123
0.0524764
0.0523976
0.0521486
0.0520762
0.0521602
0.0523567
0.0528618
0.0531942
0.0533642
0.0556424
0.0563546
0.128969
0.135707
0.0611983
0.0578393
0.0544158
0.053412
0.0528481
0.0522997
0.0520571
0.0519576
0.0518712
0.0517804
0.0518233
0.0521098
0.0521859
0.0520824
0.051821
0.051805
0.051922
0.0522168
0.0527857
0.0533237
0.0542771
0.0575126
0.0610295
0.135531
0.15131
0.0692473
0.0615469
0.0559353
0.0544263
0.053154
0.0522446
0.0518994
0.0517778
0.0517001
0.0516018
0.0516321
0.0519421
0.0520273
0.0519215
0.0516214
0.0516527
0.0517989
0.0521596
0.0530927
0.0542254
0.0556188
0.0610284
0.0684065
0.154139
0.239315
0.0874392
0.0664715
0.0590047
0.0553933
0.0537025
0.0525525
0.0520557
0.0518354
0.05176
0.0516804
0.0516763
0.0520074
0.0521091
0.0519973
0.0517091
0.0517617
0.0519461
0.052438
0.053606
0.055258
0.0586523
0.0660069
0.0866819
0.241162
0.365353
0.118416
0.0759794
0.0629515
0.0575741
0.0547769
0.0531538
0.0526157
0.052325
0.0522294
0.0521661
0.0521257
0.0524473
0.0525682
0.0524887
0.0522579
0.0523095
0.0525484
0.0530326
0.054617
0.0573277
0.0616287
0.0748325
0.113025
0.365703
0.658265
0.193108
0.104027
0.0744141
0.0613376
0.057297
0.0551506
0.0541525
0.0536809
0.053513
0.0534222
0.0533566
0.0536172
0.0537671
0.0537649
0.0536697
0.0537544
0.0541558
0.0551188
0.0568224
0.0618933
0.073394
0.100187
0.182925
0.643692
0.582072
0.436547
0.176019
0.0921929
0.0767652
0.0649248
0.0596483
0.0577723
0.0568871
0.0565746
0.0564135
0.0563332
0.0564843
0.0566534
0.0567731
0.0568658
0.0571268
0.0579282
0.0598429
0.065313
0.0763363
0.0897338
0.172115
0.433732
0.58139
0.491637
0.40088
0.347043
0.326385
0.115697
0.0802651
0.0733918
0.0675236
0.0650574
0.0642882
0.0638671
0.0636726
0.0637069
0.0638945
0.0642074
0.0647208
0.0656818
0.0683657
0.0749551
0.0830968
0.131166
0.32836
0.337545
0.401514
0.500238
0.408346
0.349611
0.32936
0.333641
0.301002
0.199614
0.126911
0.0944895
0.0864607
0.085817
0.0852323
0.0849285
0.0849578
0.0851563
0.0856377
0.0865981
0.0875658
0.0953615
0.134035
0.212927
0.302309
0.330294
0.331375
0.360408
0.421871
0.329784
0.293351
0.282221
0.301018
0.312627
0.321265
0.244181
0.191346
0.171162
0.14848
0.136355
0.132301
0.130866
0.131628
0.13435
0.143234
0.171592
0.195462
0.24956
0.324123
0.307792
0.303884
0.291631
0.298512
0.342021
0.239083
0.227153
0.225275
0.264547
0.318617
0.400276
0.530076
0.564934
0.539578
0.537773
0.557516
0.570871
0.578318
0.574541
0.561387
0.551237
0.539643
0.568251
0.53175
0.396502
0.314167
0.266859
0.230434
0.234598
0.252067
0.140439
0.152532
0.185677
0.226744
0.311631
0.432183
0.563108
0.617149
0.562069
0.512569
0.494931
0.491673
0.494388
0.493273
0.49859
0.53072
0.567208
0.607037
0.565425
0.43763
0.310266
0.229218
0.177491
0.143071
0.131234
0.0685747
0.103252
0.165545
0.250266
0.350139
0.408661
0.473625
0.533658
0.500985
0.453534
0.433442
0.430492
0.432024
0.435061
0.441547
0.463139
0.497257
0.527859
0.488157
0.427387
0.372256
0.265328
0.168442
0.104731
0.0704779
0.0268788
0.0527432
0.11363
0.229869
0.346273
0.36276
0.384975
0.426852
0.425218
0.403224
0.39084
0.384897
0.382349
0.390203
0.398753
0.40639
0.414792
0.414957
0.389671
0.377895
0.363073
0.228496
0.112067
0.0519953
0.0259373
0.0797176
0.0887538
0.115014
0.186358
0.275326
0.285981
0.307225
0.351667
0.370118
0.361653
0.349612
0.338708
0.333229
0.344717
0.356783
0.361867
0.357379
0.338109
0.307564
0.295809
0.282839
0.185929
0.113437
0.0891496
0.0844661
0.125503
0.154047
0.129278
0.156662
0.207645
0.224757
0.252009
0.298123
0.322588
0.320517
0.308403
0.294251
0.287727
0.300164
0.315119
0.320016
0.310549
0.285564
0.248064
0.230319
0.210582
0.153839
0.125536
0.150395
0.125732
0.171395
0.166526
0.133375
0.134522
0.164345
0.181023
0.211621
0.25595
0.281038
0.280943
0.268692
0.254065
0.247059
0.258831
0.273769
0.278981
0.268938
0.246021
0.206001
0.183569
0.165859
0.134447
0.129912
0.161713
0.172292
0.211033
0.19806
0.13485
0.124022
0.138719
0.154746
0.180226
0.219914
0.242527
0.244286
0.232078
0.217949
0.212106
0.222443
0.236948
0.242502
0.231781
0.210818
0.176189
0.155457
0.139505
0.123996
0.132943
0.203232
0.206243
0.231892
0.235701
0.137866
0.119505
0.122797
0.13507
0.156724
0.188977
0.208466
0.210095
0.200135
0.1878
0.182461
0.19195
0.205086
0.209776
0.199854
0.181608
0.153703
0.134432
0.123038
0.12143
0.137447
0.243516
0.228134
0.254663
0.263554
0.138192
0.116049
0.112093
0.121194
0.138618
0.164517
0.180073
0.18193
0.173236
0.161972
0.15751
0.165389
0.177235
0.181357
0.172839
0.157624
0.13598
0.120857
0.112615
0.117405
0.138735
0.270706
0.251192
0.283085
0.278776
0.13922
0.112838
0.105734
0.109908
0.124382
0.143772
0.155834
0.156548
0.149771
0.140562
0.136556
0.143777
0.153717
0.156785
0.150025
0.138041
0.121324
0.108628
0.106554
0.114198
0.141588
0.290341
0.276502
0.311882
0.297562
0.138854
0.108192
0.100565
0.101842
0.112652
0.126904
0.135342
0.135954
0.130134
0.122123
0.119068
0.124991
0.133963
0.137184
0.132005
0.122439
0.110135
0.100907
0.101619
0.109875
0.142049
0.306912
0.305753
0.343144
0.326283
0.143305
0.105879
0.0979858
0.0952892
0.102892
0.112744
0.119156
0.118748
0.114016
0.107431
0.104318
0.109608
0.116627
0.11909
0.115735
0.108954
0.100486
0.0942182
0.0984883
0.106469
0.143998
0.32088
0.336205
0.371465
0.340586
0.143604
0.101741
0.0935836
0.0907746
0.0953668
0.101383
0.104919
0.104284
0.100052
0.0942814
0.092
0.0963232
0.102827
0.105382
0.103037
0.0979767
0.0927339
0.0886552
0.0939073
0.102974
0.145529
0.341837
0.362737
0.386549
0.345926
0.149014
0.100877
0.0912113
0.0863255
0.0890459
0.0909912
0.0932379
0.091887
0.0885323
0.0839163
0.0815222
0.0856916
0.0908885
0.0929659
0.0920004
0.0889899
0.0868817
0.0848124
0.0906646
0.101017
0.148575
0.348529
0.386857
0.396727
0.345578
0.152877
0.0992916
0.0864983
0.0815481
0.0835223
0.0836497
0.08404
0.0824389
0.079121
0.0746095
0.0727719
0.0760651
0.0810307
0.0832388
0.0830101
0.0812833
0.0815643
0.0795034
0.0858802
0.0994098
0.150787
0.347045
0.398778
0.414939
0.340075
0.158538
0.100454
0.0844942
0.0780248
0.0790612
0.0764651
0.0759653
0.0737558
0.0709554
0.0673194
0.0653492
0.0686742
0.0727235
0.074641
0.075367
0.0749318
0.0771358
0.076289
0.082946
0.099676
0.157917
0.349898
0.411777
0.422607
0.334718
0.163488
0.100958
0.0808077
0.0742
0.0736261
0.0708206
0.0691072
0.0668975
0.0641825
0.0605534
0.0591004
0.0617181
0.0658375
0.0680419
0.0690601
0.069477
0.0722803
0.0721478
0.0798434
0.0998245
0.164944
0.341006
0.423798
0.428681
0.333516
0.164217
0.104078
0.0807232
0.0719914
0.0698413
0.0656631
0.0635992
0.0607497
0.0583709
0.0554353
0.0537809
0.056409
0.0596649
0.0615025
0.0634112
0.0646114
0.0684557
0.0701609
0.0785031
0.102054
0.168976
0.342613
0.431938
0.434741
0.325423
0.162101
0.105643
0.0803776
0.0686441
0.0652711
0.061068
0.0586119
0.0558841
0.0534603
0.0504169
0.0492343
0.0513126
0.054775
0.056951
0.058773
0.0599003
0.0643589
0.0673753
0.078492
0.105084
0.167444
0.339877
0.433625
0.43965
0.326251
0.162129
0.110924
0.0824634
0.0674226
0.0626407
0.0567215
0.054338
0.0512805
0.0491356
0.0467156
0.0453375
0.047493
0.0502286
0.0520929
0.0546622
0.056109
0.0616951
0.0658501
0.0801105
0.109991
0.166501
0.336025
0.43985
0.436269
0.323957
0.159953
0.118466
0.0839754
0.0656
0.0590393
0.0531292
0.0504909
0.04785
0.045619
0.0429651
0.0419604
0.0436561
0.0466773
0.0487066
0.0507392
0.0521562
0.0581667
0.0642726
0.0813317
0.117876
0.161865
0.332244
0.438815
0.433107
0.322779
0.156686
0.122202
0.0872758
0.0666054
0.0573728
0.0499987
0.0472462
0.0442536
0.0423364
0.0402336
0.0390592
0.0409206
0.043254
0.0449137
0.0476815
0.0494878
0.0562107
0.0649748
0.0855805
0.122304
0.158057
0.332772
0.433638
0.423894
0.323708
0.149546
0.122234
0.0921211
0.0667482
0.0549017
0.0472292
0.0442084
0.0416668
0.0396906
0.0373485
0.0365258
0.0379512
0.0406647
0.0424826
0.0446866
0.0466736
0.0541195
0.0651429
0.0892814
0.122038
0.150368
0.327967
0.427824
0.412396
0.324246
0.145086
0.122058
0.100289
0.0694871
0.05512
0.0454549
0.0420519
0.0389139
0.0371689
0.0353607
0.0343017
0.0358635
0.0379323
0.0393988
0.0425043
0.0450614
0.0538981
0.0674706
0.097203
0.121684
0.146072
0.331674
0.418699
0.407109
0.321755
0.139521
0.119751
0.107456
0.0710941
0.0543224
0.0441714
0.0399221
0.0370937
0.0351646
0.033042
0.0323446
0.0335513
0.036044
0.0377375
0.0403931
0.0435878
0.0536736
0.0696315
0.108798
0.120498
0.142886
0.329173
0.405375
0.397895
0.322979
0.137468
0.11625
0.107701
0.0764671
0.0555986
0.0441294
0.0388499
0.0349797
0.0331899
0.0315409
0.0306095
0.0319781
0.0338874
0.0354326
0.0394099
0.043644
0.0544931
0.0745325
0.108959
0.117506
0.140728
0.328552
0.398186
0.388703
0.318596
0.136873
0.111043
0.106549
0.0843329
0.0568392
0.0439103
0.0378617
0.0339529
0.0317764
0.029704
0.0290718
0.0301233
0.0325222
0.0343104
0.0380933
0.043364
0.0558641
0.0819805
0.107795
0.112268
0.13919
0.326933
0.389377
0.382225
0.315941
0.135417
0.106259
0.103787
0.0931249
0.0610512
0.0446946
0.0381093
0.0327687
0.0303474
0.0286034
0.0277318
0.0289807
0.0308546
0.0328931
0.0384546
0.0444445
0.060209
0.0941332
0.105295
0.108166
0.140648
0.322428
0.380425
0.375141
0.314486
0.136122
0.102978
0.099137
0.0929594
0.0678713
0.0459514
0.0377956
0.0327565
0.029684
0.0272818
0.0266115
0.0276389
0.0303659
0.0327912
0.0380044
0.0455849
0.06697
0.0936999
0.100712
0.10402
0.139097
0.318873
0.375662
0.363096
0.308033
0.137994
0.100318
0.0945295
0.0915054
0.0787081
0.0498632
0.038939
0.0325174
0.0291197
0.0268941
0.0257611
0.0271463
0.0295034
0.0324445
0.0389722
0.0492493
0.077452
0.092548
0.0959398
0.101105
0.139483
0.31725
0.36682
0.353355
0.303863
0.13704
0.0985606
0.0908768
0.0888967
0.0789299
0.056077
0.0398895
0.0328577
0.0293078
0.0263601
0.0250996
0.026633
0.0299287
0.0329254
0.0399194
0.0557547
0.0786755
0.0892849
0.0916883
0.0992768
0.140064
0.31178
0.354854
0.327073
0.292225
0.136532
0.0975974
0.0878743
0.0846543
0.0781597
0.0654434
0.0437045
0.0332135
0.0291969
0.0266269
0.0250911
0.026828
0.0295274
0.0332074
0.0437861
0.0655472
0.0782194
0.0851318
0.088397
0.097942
0.138986
0.300127
0.328795
0.296469
0.273641
0.132567
0.0959473
0.0854115
0.0806664
0.0764557
0.0676941
0.0490803
0.035559
0.0299566
0.0264746
0.0251474
0.0267031
0.0304344
0.0353368
0.049108
0.0684175
0.0765364
0.0803011
0.085482
0.0962158
0.134099
0.281485
0.298986
0.126096
0.552333
0.778
0.865084
0.867478
0.857021
0.828631
0.797082
0.749862
0.687822
0.620819
0.546619
0.476969
0.421066
0.379423
0.348385
0.324509
0.307285
0.293034
0.27837
0.263508
0.249859
0.236815
0.222505
0.206866
0.190135
0.169167
0.143103
0.110182
0.085301
0.120494
0.584968
0.80779
0.887662
0.883531
0.87182
0.845588
0.817771
0.775046
0.717293
0.646781
0.571537
0.498562
0.436283
0.387051
0.347419
0.322639
0.303602
0.286937
0.271349
0.257064
0.244302
0.230498
0.216369
0.201541
0.184721
0.164495
0.138692
0.106932
0.0833402
0.130512
0.650391
0.843767
0.913071
0.905421
0.893069
0.870767
0.846649
0.807635
0.750436
0.680617
0.603385
0.525402
0.455688
0.395701
0.354664
0.323536
0.301039
0.281877
0.26593
0.252615
0.240135
0.226357
0.212524
0.197643
0.180642
0.160719
0.135003
0.104175
0.0819918
0.1396
0.684136
0.876611
0.937638
0.928329
0.917648
0.898535
0.875822
0.841963
0.789429
0.7214
0.641344
0.55911
0.480631
0.41544
0.367015
0.330222
0.302746
0.280735
0.263156
0.249394
0.236276
0.222338
0.20852
0.193429
0.176469
0.156831
0.131082
0.101171
0.0803709
0.144743
0.713466
0.911017
0.966375
0.957166
0.942321
0.92214
0.904437
0.876031
0.830711
0.765746
0.68614
0.597647
0.513304
0.44237
0.3855
0.340888
0.307188
0.281956
0.263089
0.247827
0.23401
0.219471
0.205437
0.190463
0.173649
0.153149
0.127995
0.0991341
0.0792848
0.149125
0.746876
0.948646
1.00102
0.98272
0.960933
0.942537
0.931615
0.907907
0.869567
0.810269
0.732244
0.639407
0.553687
0.475657
0.410108
0.356461
0.315765
0.28607
0.264017
0.246835
0.231924
0.217213
0.20269
0.187495
0.171027
0.149617
0.125146
0.0971456
0.0781708
0.154441
0.780187
0.986586
1.03472
1.00141
0.976779
0.961572
0.95375
0.935869
0.903859
0.853758
0.78178
0.693411
0.603055
0.518093
0.44079
0.377651
0.32946
0.294044
0.267489
0.247685
0.231169
0.215885
0.200437
0.185229
0.168381
0.147207
0.122602
0.0954143
0.0773189
0.159808
0.813956
1.02427
1.06217
1.01903
0.992011
0.978051
0.974406
0.960972
0.936959
0.896685
0.832578
0.751201
0.660475
0.568876
0.481714
0.408475
0.350367
0.306904
0.27475
0.250813
0.231211
0.214302
0.198804
0.183736
0.16518
0.144604
0.120027
0.093742
0.0764062
0.165211
0.84797
1.05989
1.0854
1.03675
1.0063
0.99282
0.992551
0.982581
0.965632
0.935751
0.881957
0.809897
0.722398
0.628631
0.533856
0.449524
0.38036
0.326719
0.287172
0.257427
0.233663
0.214472
0.198311
0.182473
0.16324
0.142353
0.118028
0.0925145
0.0758185
0.169425
0.877726
1.08995
1.10795
1.05533
1.02073
1.00565
1.00724
0.998714
0.989188
0.969271
0.926339
0.86563
0.787497
0.694631
0.59532
0.500732
0.419618
0.354286
0.305012
0.267161
0.237857
0.216182
0.198471
0.181247
0.161676
0.140374
0.116185
0.0913186
0.0751559
0.173196
0.901196
1.11633
1.13042
1.07194
1.03196
1.01483
1.01734
1.00962
1.0063
0.994718
0.963449
0.916736
0.849943
0.762492
0.66392
0.562282
0.469545
0.391352
0.329608
0.281554
0.245701
0.219928
0.200334
0.181357
0.160692
0.139082
0.1154
0.0905786
0.0748558
0.176524
0.921421
1.14076
1.15048
1.08486
1.04184
1.02058
1.02256
1.01653
1.01722
1.01274
0.99428
0.960524
0.905667
0.828593
0.735772
0.631464
0.528795
0.436855
0.360316
0.300866
0.25679
0.226199
0.203573
0.181622
0.160168
0.138303
0.114439
0.0904557
0.0745759
0.179288
0.940945
1.1635
1.16465
1.09533
1.05075
1.02446
1.02359
1.01803
1.02287
1.02391
1.01824
0.996732
0.954658
0.89102
0.806967
0.705536
0.596299
0.491821
0.400346
0.327088
0.272924
0.23556
0.207525
0.183281
0.160797
0.1384
0.113852
0.0901951
0.074734
0.180749
0.958056
1.178
1.17446
1.1038
1.05814
1.02664
1.02139
1.014
1.02372
1.02983
1.03343
1.02355
0.995903
0.947179
0.874729
0.779822
0.669353
0.555826
0.450337
0.361846
0.29511
0.24798
0.213457
0.186083
0.162595
0.139064
0.113751
0.0898259
0.0754213
0.1817
0.970714
1.18534
1.17975
1.11024
1.06303
1.02669
1.01401
1.00698
1.02001
1.03213
1.04307
1.04317
1.0296
0.994861
0.935781
0.851933
0.746219
0.628343
0.511402
0.407162
0.324777
0.265589
0.222928
0.191546
0.165682
0.140216
0.114107
0.0898414
0.0759035
0.181419
0.976206
1.18977
1.18033
1.11297
1.06495
1.02538
1.00433
0.998903
1.01394
1.0327
1.04832
1.0558
1.05455
1.03273
0.98718
0.916553
0.820897
0.705073
0.58159
0.463289
0.364234
0.290066
0.237518
0.19937
0.169583
0.141798
0.114709
0.0899757
0.0759964
0.180333
0.974868
1.18831
1.17724
1.11163
1.06413
1.02221
0.994146
0.993552
1.00957
1.03212
1.05084
1.06336
1.0719
1.06102
1.0291
0.972636
0.889582
0.78196
0.657671
0.529803
0.413852
0.322112
0.256314
0.210273
0.175716
0.144913
0.116086
0.0905369
0.0764153
0.178802
0.966535
1.18024
1.17025
1.10596
1.05979
1.01473
0.986428
0.987859
1.00554
1.02818
1.0512
1.06722
1.08281
1.08137
1.06174
1.02012
0.95105
0.854621
0.734263
0.602788
0.472791
0.362295
0.280565
0.224007
0.183191
0.148493
0.117697
0.0912495
0.0770193
0.175776
0.951187
1.16726
1.15704
1.09651
1.05049
1.00558
0.980994
0.982923
1.00081
1.02336
1.04932
1.06835
1.08903
1.0959
1.08734
1.05994
1.00511
0.92153
0.809761
0.678777
0.54047
0.411844
0.311483
0.241394
0.192226
0.152919
0.119648
0.0918799
0.0776074
0.172567
0.932633
1.1381
1.13581
1.08195
1.03854
0.996861
0.974938
0.978161
0.996059
1.01896
1.04436
1.06768
1.09213
1.10595
1.10626
1.09056
1.05052
0.98092
0.881303
0.75466
0.613083
0.469584
0.350319
0.263428
0.203371
0.158251
0.121801
0.0923394
0.0779797
0.167946
0.903015
1.10551
1.10566
1.06113
1.02373
0.98831
0.968976
0.973206
0.990897
1.01417
1.03992
1.06549
1.094
1.11314
1.12008
1.11299
1.08708
1.03231
0.946773
0.829663
0.688221
0.535972
0.398896
0.29193
0.217968
0.165382
0.124781
0.0929835
0.0783714
0.163909
0.870013
1.05947
1.06287
1.03269
1.00538
0.978639
0.96377
0.968739
0.986562
1.01015
1.03569
1.06405
1.0959
1.11888
1.1303
1.12989
1.11486
1.0742
1.00264
0.898667
0.762665
0.609581
0.45737
0.329342
0.23793
0.175555
0.129179
0.0942068
0.0790864
0.157423
0.819545
0.992845
1.00639
0.995772
0.983461
0.96671
0.959078
0.965256
0.983764
1.00813
1.03393
1.06401
1.09885
1.12407
1.13832
1.142
1.13552
1.10575
1.04717
0.957789
0.83321
0.68604
0.524376
0.375633
0.263526
0.188618
0.134864
0.0961757
0.0800804
0.154251
0.742608
0.892765
0.927139
0.947189
0.956573
0.953219
0.952051
0.962652
0.982958
1.00837
1.03494
1.06722
1.10184
1.12888
1.1444
1.14975
1.14866
1.12734
1.08022
1.00477
0.899198
0.761038
0.595577
0.429407
0.294534
0.204029
0.141627
0.0987291
0.0812166
0.134637
0.551226
0.702442
0.80761
0.881053
0.922348
0.936134
0.944634
0.959927
0.98258
1.00947
1.03878
1.07193
1.10643
1.13165
1.14821
1.15373
1.15664
1.14257
1.10679
1.04954
0.960689
0.832692
0.667973
0.489314
0.332014
0.222998
0.149832
0.10131
0.0820731
0.0838571
0.108383
0.141237
0.168237
0.188371
0.207155
0.222273
0.237703
0.252064
0.266708
0.280285
0.29452
0.30988
0.326969
0.348525
0.377631
0.417373
0.471199
0.538328
0.607773
0.676857
0.741873
0.789717
0.821615
0.851096
0.861198
0.857997
0.76898
0.543731
0.123666
0.0820747
0.105295
0.137208
0.163313
0.184889
0.200859
0.216635
0.23083
0.245134
0.258688
0.272408
0.287825
0.305096
0.323726
0.347297
0.384978
0.431389
0.491584
0.561516
0.634783
0.705523
0.765439
0.808991
0.837846
0.865442
0.876745
0.880487
0.799161
0.576025
0.118244
0.0807137
0.102871
0.133701
0.159135
0.180965
0.197009
0.211833
0.226227
0.239719
0.253509
0.267797
0.282725
0.300278
0.323437
0.353235
0.392074
0.45038
0.517442
0.59253
0.667871
0.738405
0.796295
0.836292
0.86191
0.886806
0.898333
0.905523
0.835843
0.640203
0.128127
0.0792173
0.100089
0.129622
0.155355
0.175562
0.19353
0.207899
0.222195
0.235194
0.248713
0.263514
0.279191
0.300772
0.326984
0.36264
0.409382
0.473103
0.550694
0.630658
0.707734
0.777001
0.830375
0.865313
0.888501
0.909251
0.92008
0.929981
0.869007
0.673699
0.137185
0.0780179
0.0978459
0.126585
0.152188
0.172558
0.190254
0.205257
0.219671
0.232664
0.246086
0.261539
0.280689
0.304955
0.336321
0.378651
0.435545
0.502994
0.590483
0.675146
0.75412
0.81842
0.864602
0.893206
0.914628
0.932923
0.946008
0.958701
0.903667
0.703021
0.142092
0.0769622
0.0960152
0.123967
0.149055
0.169965
0.187305
0.202576
0.216935
0.230405
0.244884
0.262244
0.284585
0.313035
0.351757
0.401862
0.468442
0.545767
0.63171
0.722952
0.800183
0.858797
0.89719
0.920644
0.934902
0.952643
0.973005
0.99175
0.941154
0.736562
0.146258
0.0762478
0.0946191
0.121802
0.146685
0.167109
0.185053
0.200725
0.215534
0.229907
0.246068
0.266046
0.291983
0.32626
0.374559
0.433712
0.510795
0.596342
0.684903
0.771193
0.843004
0.89421
0.924968
0.943089
0.95372
0.967374
0.993238
1.02714
0.97926
0.770147
0.151744
0.0753729
0.0932425
0.119601
0.144046
0.164535
0.182712
0.199051
0.21479
0.230387
0.24895
0.272693
0.304171
0.346497
0.403741
0.4756
0.562005
0.655023
0.743592
0.822602
0.886281
0.926809
0.949872
0.963113
0.970078
0.98167
1.0104
1.05591
1.01615
0.80395
0.156814
0.0748325
0.0921847
0.117839
0.142005
0.162689
0.18119
0.198312
0.215188
0.233037
0.255213
0.284333
0.323125
0.375279
0.44349
0.52736
0.622415
0.717596
0.802577
0.874622
0.92711
0.957197
0.97224
0.981425
0.984447
0.995282
1.02714
1.07956
1.05423
0.838287
0.162348
0.0742022
0.0910145
0.116219
0.140126
0.161101
0.180069
0.198133
0.216675
0.237443
0.264628
0.301077
0.349477
0.413002
0.492969
0.587356
0.687095
0.780865
0.859649
0.921376
0.961645
0.981176
0.988991
0.996309
0.997402
1.0089
1.0446
1.10142
1.08667
0.871208
0.166846
0.0739539
0.0901974
0.115047
0.138895
0.160476
0.179966
0.199572
0.220012
0.245019
0.278703
0.324595
0.385214
0.461817
0.553069
0.654799
0.754999
0.843122
0.911899
0.960695
0.988438
0.998945
1.00128
1.00688
1.00686
1.01967
1.06182
1.12328
1.11452
0.89717
0.170389
0.0736933
0.089524
0.114081
0.13813
0.160872
0.180839
0.202217
0.22516
0.25548
0.297264
0.354596
0.429349
0.519978
0.620974
0.725553
0.821052
0.90046
0.95685
0.991952
1.00733
1.00998
1.00886
1.01181
1.01359
1.02924
1.0749
1.14445
1.13956
0.918712
0.173657
0.0738223
0.0895228
0.114486
0.138419
0.161167
0.183553
0.206118
0.233957
0.270359
0.322453
0.393334
0.483009
0.58664
0.69446
0.796109
0.882475
0.949551
0.992691
1.01486
1.01958
1.01596
1.01159
1.01337
1.01809
1.03728
1.0859
1.15939
1.16301
0.938285
0.176778
0.0741
0.0902333
0.114255
0.139194
0.162466
0.186897
0.211926
0.245197
0.290652
0.354976
0.44099
0.544894
0.657629
0.767506
0.8633
0.93769
0.989348
1.01906
1.0301
1.0264
1.01821
1.00865
1.01219
1.02087
1.04461
1.09458
1.17009
1.18079
0.956556
0.178661
0.0745746
0.0900702
0.114363
0.140205
0.165225
0.191258
0.220784
0.260832
0.317687
0.397059
0.498896
0.614518
0.73168
0.838422
0.924392
0.985208
1.02217
1.03827
1.03923
1.02906
1.01679
1.00282
1.00596
1.02166
1.05046
1.10061
1.17676
1.18915
0.970626
0.180017
0.0750511
0.0901925
0.115336
0.142461
0.168586
0.197224
0.232574
0.281599
0.352865
0.448835
0.565331
0.688582
0.805012
0.903537
0.976463
1.02408
1.04801
1.05146
1.045
1.03032
1.01225
0.995679
0.99808
1.02167
1.05423
1.10388
1.17848
1.19362
0.97759
0.180085
0.0756558
0.09052
0.1162
0.144986
0.173378
0.205569
0.248359
0.309357
0.397283
0.510524
0.638162
0.763609
0.874256
0.960614
1.02027
1.05454
1.06693
1.06059
1.04842
1.03031
1.00791
0.991156
0.990263
1.01886
1.05536
1.10358
1.17523
1.19298
0.976893
0.179233
0.0762445
0.09056
0.116938
0.147399
0.179392
0.216672
0.268735
0.344325
0.450603
0.579367
0.71247
0.835027
0.935621
1.0091
1.05529
1.07679
1.0801
1.06606
1.04896
1.0267
1.00392
0.98637
0.984237
1.01175
1.05312
1.09986
1.16779
1.18507
0.969948
0.178033
0.0762839
0.0904874
0.11787
0.150564
0.186851
0.231242
0.29505
0.387977
0.512579
0.651783
0.785494
0.901805
0.990377
1.04994
1.08262
1.09325
1.0881
1.06792
1.04717
1.02156
0.998986
0.981315
0.97862
1.00368
1.0462
1.09267
1.15354
1.17141
0.954805
0.175195
0.0763976
0.0907188
0.119502
0.154645
0.196035
0.249704
0.328964
0.440545
0.580316
0.724557
0.855138
0.960892
1.03643
1.08215
1.10285
1.10501
1.09203
1.06734
1.04194
1.01678
0.9937
0.976175
0.972818
0.995182
1.03526
1.07937
1.13274
1.14215
0.936648
0.172221
0.0769787
0.0919405
0.122775
0.160684
0.208392
0.27429
0.371119
0.501703
0.652915
0.796996
0.920677
1.01338
1.07483
1.10668
1.11756
1.11266
1.09375
1.06518
1.0371
1.01151
0.987961
0.970666
0.966893
0.986675
1.02081
1.05922
1.10257
1.1093
0.907219
0.167748
0.0780765
0.0937591
0.127136
0.169598
0.225074
0.305552
0.422524
0.570553
0.72428
0.865265
0.977891
1.0573
1.10527
1.1249
1.12842
1.11831
1.09532
1.06372
1.03242
1.00717
0.983138
0.965673
0.961059
0.977395
1.00289
1.03118
1.06195
1.06337
0.874341
0.163897
0.0793515
0.0958698
0.132282
0.180805
0.246593
0.344971
0.483052
0.643499
0.79527
0.927342
1.02542
1.09193
1.12793
1.13746
1.13591
1.12307
1.09817
1.06333
1.03008
1.00476
0.98001
0.961733
0.955239
0.966473
0.980935
0.994297
1.00462
0.996397
0.823573
0.157522
0.0804046
0.0981905
0.138295
0.194102
0.272365
0.391541
0.549079
0.716963
0.863108
0.979364
1.06359
1.11808
1.14406
1.14604
1.14142
1.12757
1.10166
1.06656
1.03029
1.00399
0.978439
0.958835
0.949227
0.953062
0.954119
0.945348
0.926108
0.896234
0.745794
0.154395
0.0810116
0.100148
0.144975
0.209697
0.303684
0.445217
0.618551
0.789075
0.927703
1.02714
1.09669
1.13973
1.15589
1.1525
1.1462
1.13128
1.10706
1.07202
1.03344
1.00465
0.977853
0.956016
0.9418
0.935994
0.920692
0.881759
0.807959
0.707012
0.552972
0.135067
0.526432
0.52392
0.528574
0.530801
0.533497
0.536238
0.538939
0.542129
0.545423
0.549046
0.552917
0.556968
0.561106
0.565227
0.569275
0.573267
0.577336
0.581511
0.585687
0.589784
0.593734
0.597327
0.600508
0.603566
0.606631
0.609529
0.611891
0.613849
0.615416
0.616579
0.617344
0.617703
0.617652
0.617187
0.616305
0.615003
0.61328
0.611157
0.608658
0.605627
0.602312
0.599265
0.595185
0.591335
0.586986
0.5822
0.576958
0.571173
0.564787
0.55808
0.550859
0.543104
0.534814
0.526033
0.516882
0.507304
0.497294
0.486855
0.476043
0.464905
0.453452
0.441697
0.429667
0.417423
0.405007
0.392451
0.379781
0.367262
0.355028
0.343069
0.331448
0.320207
0.309371
0.29896
0.289021
0.279519
0.270575
0.262133
0.2542
0.246955
0.240159
0.233926
0.228079
0.222455
0.218018
0.214493
0.210813
0.207
0.203244
0.199461
0.195645
0.191626
0.187169
0.182491
0.177183
0.171408
0.165213
0.158513
0.151358
0.14402
0.136626
0.129227
0.122036
0.115277
0.108851
0.103256
0.0984465
0.0945052
0.091306
0.0888678
0.0871381
0.0858899
0.0849728
0.0844634
0.0842332
0.084178
0.0841087
0.0840785
0.0840923
0.084011
0.0839937
0.083892
0.0835219
0.0825532
0.0815906
4.61135
4.56203
4.55836
4.57465
4.59908
4.62812
4.66096
4.69779
4.73774
4.78057
4.82546
4.87155
4.91793
4.96365
5.00781
5.04932
5.08669
5.1202
5.15068
5.17881
5.20605
5.23064
5.25138
5.26907
5.28448
5.29849
5.30923
5.31732
5.32254
5.32481
5.32411
5.32042
5.31366
5.30378
5.29068
5.27429
5.25451
5.23122
5.20442
5.1738
5.13918
5.10003
5.05646
5.00926
4.95877
4.90511
4.8489
4.791
4.72376
4.65681
4.58628
4.51269
4.43609
4.35565
4.27275
4.18677
4.09772
4.00562
3.91064
3.81327
3.71341
3.61114
3.50668
3.40049
3.2928
3.1837
3.07287
2.95716
2.83541
2.7114
2.59017
2.4708
2.35389
2.23992
2.12988
2.02451
1.924
1.82839
1.73758
1.65152
1.57062
1.49642
1.4304
1.37251
1.32239
1.2778
1.23701
1.19919
1.16519
1.13736
1.11411
1.09286
1.07296
1.05396
1.03447
1.01371
0.990604
0.964062
0.933251
0.897616
0.856933
0.810897
0.760374
0.705305
0.647173
0.587852
0.528675
0.472073
0.417541
0.3664
0.320278
0.278955
0.242784
0.212564
0.187493
0.167506
0.151258
0.13855
0.129273
0.122805
0.11788
0.113416
0.109356
0.105846
0.102377
7.52199
7.45539
7.45651
7.48456
7.52345
7.56998
7.62255
7.68023
7.74192
7.80639
7.87211
7.93754
8.00119
8.0617
8.11804
8.16929
8.21435
8.25388
8.28877
8.32012
8.3499
8.37203
8.38733
8.39822
8.40649
8.41177
8.41092
8.40557
8.39588
8.38161
8.36257
8.33865
8.30975
8.2758
8.23678
8.1926
8.14319
8.08852
8.02867
7.96372
7.89328
7.8174
7.73602
7.64982
7.55913
7.46416
7.36524
7.26248
7.15494
7.04275
6.92663
6.80731
6.68496
6.54895
6.41865
6.2836
6.14493
6.00288
5.8568
5.70737
5.55436
5.39817
5.2392
5.07834
4.91595
4.7522
4.58727
4.42119
4.25399
4.08536
3.91332
3.7423
3.57866
3.4205
3.26646
3.11623
2.97069
2.83179
2.7003
2.57654
2.46059
2.35245
2.25217
2.15951
2.07421
1.99572
1.9231
1.856
1.79436
1.73851
1.68728
1.6382
1.59204
1.5482
1.50556
1.46338
1.42089
1.37737
1.33233
1.28551
1.23689
1.18599
1.13366
1.07909
1.0233
0.966212
0.907665
0.849467
0.789212
0.726637
0.664316
0.600944
0.538168
0.478502
0.42353
0.374168
0.329558
0.290684
0.258475
0.232813
0.211752
0.19311
0.177006
0.163795
0.152981
9.22966
9.16417
9.16797
9.2061
9.25723
9.31594
9.38039
9.44883
9.51956
9.59082
9.66085
9.72791
9.79072
9.84853
9.90065
9.94648
9.98554
10.0173
10.0426
10.0653
10.0862
10.0955
10.0972
10.0943
10.0888
10.0799
10.0636
10.0423
10.0158
9.98386
9.94626
9.90289
9.8537
9.79872
9.73796
9.67135
9.59883
9.52036
9.43601
9.34598
9.25016
9.14825
9.04092
8.92858
8.81163
8.69032
8.56481
8.43507
8.30079
8.16254
8.02066
7.87553
7.72711
7.57457
7.41849
7.25928
7.09722
6.93098
6.75102
6.58004
6.40427
6.22617
6.04617
5.86394
5.67934
5.49311
5.30583
5.11825
4.9314
4.74562
4.5614
4.3792
4.19471
4.01337
3.84117
3.67791
3.52147
3.37018
3.22425
3.0846
2.95171
2.82669
2.7101
2.60191
2.50144
2.40824
2.32162
2.24079
2.16478
2.09293
2.02474
1.95985
1.89809
1.83919
1.78299
1.72757
1.67401
1.62156
1.56972
1.518
1.4666
1.41517
1.36409
1.31293
1.26237
1.21214
1.16153
1.11211
1.06173
1.0082
0.954993
0.898027
0.837186
0.774694
0.710939
0.646022
0.580504
0.518194
0.460956
0.411097
0.366051
0.323845
0.286158
0.254739
0.229196
10.2653
10.1976
10.2052
10.2497
10.3063
10.3698
10.4378
10.508
10.5781
10.6462
10.7107
10.7702
10.8237
10.8708