/*--------------------------------*- C++ -*----------------------------------*\
| =========                 |                                                 |
| \\      /  F ield         | OpenFOAM: The Open Source CFD Toolbox           |
|  \\    /   O peration     | Version:  2112                                  |
|   \\  /    A nd           | Website:  www.openfoam.com                      |
|    \\/     M anipulation  |                                                 |
\*---------------------------------------------------------------------------*/
FoamFile
{
    version     2.0;
    format      ascii;
    arch        "LSB;label=32;scalar=64";
    class       volScalarField;
    location    "0.00566";
    object      nut;
}
// * * * * * * * * * * * * * * * * * * * * * * * * * * * * * * * * * * * * * //

dimensions      [0 2 -1 0 0 0 0];

internalField   nonuniform List<scalar> 
13875
(
0.0511676
0.0366254
0.0343659
0.03433
0.0342982
0.0343365
0.0342926
0.034286
0.0342972
0.0342874
0.0342903
0.0342955
0.0343237
0.034342
0.0343299
0.0342939
0.0342685
0.0342873
0.034302
0.0343279
0.0343046
0.0343336
0.0343819
0.0365585
0.0514356
0.0532619
0.0341198
0.0322224
0.0321067
0.032062
0.0320859
0.0320434
0.0320411
0.0320471
0.0320281
0.0320292
0.0320486
0.0320541
0.0320727
0.03206
0.0320478
0.0320043
0.0320341
0.0320468
0.0320781
0.0320646
0.032102
0.032228
0.0340487
0.0536487
0.0564568
0.0335616
0.0318029
0.0315924
0.0315694
0.0315817
0.0314869
0.0314644
0.0314622
0.0314427
0.0314359
0.0314625
0.0315295
0.0315561
0.0315344
0.031466
0.0314088
0.0314469
0.0314804
0.0315716
0.0315658
0.0315799
0.0317941
0.0334939
0.0566043
0.0590703
0.0332326
0.0314895
0.0312761
0.0312624
0.0312675
0.0311597
0.0311228
0.0311161
0.0311022
0.031095
0.0311132
0.0312124
0.0312402
0.0312181
0.0311188
0.0310739
0.0311035
0.0311492
0.0312566
0.0312564
0.0312621
0.0314845
0.0331716
0.0591487
0.0611256
0.0330039
0.0312464
0.0310024
0.030986
0.0309838
0.0308709
0.0308298
0.0308269
0.0308163
0.0308083
0.0308226
0.0309232
0.0309552
0.0309296
0.0308293
0.0307872
0.0308156
0.0308621
0.0309729
0.030978
0.0309894
0.0312302
0.0329222
0.0612569
0.0628183
0.032848
0.0310895
0.0307711
0.0307549
0.0307363
0.0306088
0.0305633
0.0305642
0.030557
0.0305467
0.0305573
0.0306607
0.0306955
0.0306678
0.0305647
0.0305264
0.0305547
0.0306029
0.030723
0.0307451
0.0307604
0.0310591
0.0328242
0.0629666
0.0648266
0.033073
0.0311046
0.0306329
0.0305721
0.0305292
0.0303806
0.0303255
0.0303284
0.0303229
0.0303104
0.0303181
0.0304247
0.0304596
0.0304289
0.0303242
0.0302935
0.0303228
0.0303795
0.0305154
0.0305626
0.0306327
0.0311141
0.0330713
0.064859
0.0670932
0.0339359
0.0314256
0.0306507
0.0304894
0.0303804
0.0301961
0.0301234
0.030123
0.0301184
0.0301035
0.0301044
0.0302159
0.0302536
0.0302197
0.0301106
0.0300904
0.0301246
0.0301943
0.0303603
0.0304691
0.0306283
0.0313926
0.0338962
0.0673534
0.073645
0.0362963
0.0320431
0.0308478
0.0304811
0.0302907
0.030054
0.0299605
0.0299569
0.0299521
0.0299349
0.0299294
0.0300465
0.0300874
0.0300514
0.029939
0.0299262
0.0299647
0.0300495
0.0302626
0.0304547
0.0308027
0.031937
0.0360025
0.0741935
0.0828965
0.0384687
0.0327347
0.0311882
0.0305915
0.0302535
0.0299816
0.0298821
0.0298672
0.0298566
0.0298389
0.0298306
0.0299466
0.0299914
0.0299562
0.0298545
0.0298401
0.0298838
0.0299755
0.0302265
0.0305542
0.0310892
0.032622
0.0381
0.0835348
0.0907213
0.044143
0.0346587
0.0320131
0.0308459
0.0303676
0.0300572
0.0299261
0.0298897
0.0298664
0.0298463
0.0298369
0.0299455
0.0299927
0.029968
0.0298904
0.0298733
0.0299235
0.030051
0.0303315
0.0308108
0.0318938
0.0343708
0.0432676
0.08934
0.095061
0.0545378
0.0403688
0.0334546
0.0319114
0.0308791
0.0303697
0.0301791
0.0301019
0.0300591
0.0300359
0.0300297
0.0301204
0.0301688
0.0301611
0.0301132
0.0301024
0.03018
0.0303502
0.0308621
0.0318092
0.0332139
0.0398288
0.0533409
0.0942508
0.086607
0.0688669
0.0515295
0.0417648
0.0344193
0.0319815
0.0313762
0.0309108
0.0307311
0.0306334
0.0305928
0.0305818
0.0306499
0.0306969
0.0307131
0.0307116
0.0307611
0.0309419
0.0313988
0.0321132
0.0348209
0.0415681
0.0507959
0.0687081
0.0866023
0.0795873
0.0659967
0.0581543
0.0660661
0.0421301
0.0374745
0.0338641
0.0327642
0.0322997
0.0321841
0.0321488
0.0321465
0.0322085
0.0322515
0.0322746
0.0322857
0.0323522
0.0327642
0.034176
0.0382669
0.0432342
0.0656398
0.057801
0.0661274
0.0815931
0.075344
0.0644396
0.0567595
0.0610632
0.0561861
0.0550596
0.0450992
0.0397755
0.0378278
0.0366289
0.0362598
0.0360988
0.0361372
0.0362005
0.0363054
0.0365985
0.0374857
0.0395853
0.0452597
0.054745
0.0562266
0.0613309
0.0566035
0.0641699
0.0746764
0.0672738
0.0620119
0.0547658
0.058128
0.0565953
0.0581124
0.0558561
0.0531692
0.0534264
0.049862
0.0485682
0.0479007
0.0477998
0.0479121
0.0482096
0.0490487
0.0524652
0.0542801
0.0555201
0.0581565
0.05636
0.0585143
0.05438
0.0614407
0.0665245
0.0627187
0.0587413
0.0532663
0.0564436
0.058262
0.0627726
0.0707048
0.082274
0.0790095
0.0717395
0.0727227
0.0738633
0.0744829
0.0744985
0.0734121
0.0715191
0.0754031
0.0825084
0.0730572
0.0633449
0.0586494
0.0570537
0.0526103
0.0578462
0.0626453
0.0573937
0.055331
0.0546046
0.0590851
0.0623855
0.0659852
0.075978
0.0902852
0.0781456
0.0684434
0.068212
0.0688696
0.0697996
0.0695367
0.0686897
0.0687941
0.0749733
0.0860386
0.0770743
0.0670977
0.0641369
0.0607874
0.0547297
0.0547371
0.0570928
0.0515721
0.0550463
0.0584131
0.0660655
0.0698314
0.0661421
0.0702832
0.081418
0.0778623
0.070066
0.0676931
0.0671223
0.0675689
0.0677719
0.0679329
0.0690667
0.0744017
0.0791184
0.071126
0.0667645
0.0724698
0.068705
0.0593414
0.0555486
0.0522639
0.049594
0.0574781
0.0633249
0.0700063
0.0701786
0.0647548
0.0654675
0.0740181
0.0761459
0.0712527
0.0674885
0.0653464
0.0650924
0.0660075
0.0675799
0.0697986
0.0730831
0.0724612
0.0659848
0.0656767
0.0720746
0.0716769
0.064854
0.0586994
0.0491087
0.0649695
0.0797281
0.0718668
0.0657732
0.0659027
0.0617789
0.0619227
0.069344
0.0739132
0.0709608
0.0664755
0.0632208
0.0625381
0.0640719
0.0666468
0.0693827
0.0711359
0.0681903
0.0624861
0.0629501
0.0675305
0.0672321
0.0744698
0.0789457
0.0593045
0.114159
0.123702
0.0802878
0.0616697
0.0620002
0.058905
0.0592634
0.0661027
0.0715696
0.0695194
0.0647224
0.0608547
0.0598481
0.0617502
0.0648696
0.0678662
0.0690281
0.0653212
0.0599367
0.0600561
0.0633379
0.0631028
0.0850041
0.128459
0.111146
0.138701
0.112311
0.0767817
0.0588869
0.0586856
0.0565187
0.0570188
0.0635202
0.0692201
0.0675179
0.0625809
0.0584149
0.0571501
0.0591792
0.0625942
0.0657993
0.0668908
0.0629899
0.0577018
0.0575877
0.0596672
0.0600815
0.0797158
0.126853
0.144662
0.147607
0.105918
0.0710021
0.0568295
0.0559234
0.0544543
0.0550886
0.0612521
0.0669357
0.0651155
0.0600659
0.0558608
0.0545843
0.056672
0.0601959
0.063524
0.0647711
0.0607268
0.055695
0.0555659
0.0569315
0.0578947
0.0728664
0.109146
0.153844
0.152474
0.101164
0.0670488
0.0554063
0.0538038
0.0526632
0.0535727
0.0592439
0.0645478
0.0626999
0.0576662
0.0534995
0.0522164
0.0542838
0.0578559
0.0612425
0.0625634
0.0587026
0.0540283
0.0537169
0.0548103
0.0564204
0.0683716
0.104187
0.158379
0.157466
0.0985283
0.0640756
0.0542233
0.0521663
0.0511472
0.0523398
0.0575134
0.0621968
0.060282
0.0554116
0.05134
0.0500435
0.0520422
0.0555138
0.0588046
0.0602536
0.0569145
0.0526527
0.0520297
0.0530597
0.0551232
0.0647498
0.0986096
0.163584
0.16257
0.0961291
0.0616027
0.0530666
0.0508856
0.0499323
0.0514067
0.0559887
0.0597876
0.0577838
0.0531422
0.0493173
0.0480691
0.0500347
0.0534037
0.0565902
0.0581031
0.0553201
0.0514796
0.0506265
0.0517461
0.0540496
0.0625823
0.0970781
0.167314
0.166595
0.0962161
0.0601622
0.0520563
0.0499145
0.0490012
0.0505487
0.0545874
0.0575953
0.0554997
0.051127
0.0475094
0.0462768
0.0481662
0.0513601
0.0543765
0.0559674
0.0538468
0.0505042
0.0495085
0.0506578
0.0529356
0.0610461
0.0968249
0.17252
0.172228
0.0974231
0.059351
0.0512049
0.0491024
0.0483419
0.0498443
0.0532853
0.0555361
0.0534155
0.0492898
0.0458687
0.0446532
0.0464328
0.0494203
0.0522737
0.0538997
0.0524358
0.0496668
0.0486597
0.0497206
0.0519537
0.0598813
0.0961515
0.177946
0.177769
0.0971206
0.0587302
0.0504386
0.0484048
0.0479107
0.0492846
0.0520427
0.0534771
0.051263
0.0474587
0.0443269
0.0431794
0.044934
0.0477637
0.0504565
0.0520895
0.051144
0.0489102
0.0480414
0.0489248
0.0512003
0.0595477
0.0978665
0.18228
0.179873
0.0969952
0.0587229
0.0499533
0.0477893
0.047468
0.0487357
0.050876
0.0516618
0.049454
0.0458907
0.0429511
0.0418433
0.0435145
0.0461604
0.0487117
0.0503439
0.049923
0.0482671
0.0474929
0.048188
0.0506319
0.0594902
0.0989419
0.186653
0.182423
0.0972298
0.0589473
0.0497848
0.0473629
0.0470426
0.0481864
0.0497938
0.0500701
0.0478228
0.0444701
0.0417092
0.0406385
0.0422315
0.0447027
0.0471354
0.0487873
0.048782
0.0476231
0.0469515
0.0476445
0.0503593
0.0596581
0.0985684
0.187939
0.185238
0.096357
0.0591474
0.0498965
0.0469951
0.0466463
0.047646
0.0487376
0.0484782
0.0462599
0.0431255
0.0405485
0.039542
0.0410975
0.0434481
0.0457885
0.0474227
0.0477364
0.0469891
0.0464158
0.0471526
0.050392
0.0602267
0.0989214
0.189418
0.186579
0.0967993
0.0601608
0.0503694
0.0468168
0.0463122
0.0470552
0.0477678
0.0471216
0.0449102
0.041946
0.0395178
0.0385556
0.0400355
0.0422423
0.0444814
0.0461127
0.0467504
0.046337
0.0459758
0.0468202
0.0507268
0.061085
0.098817
0.191302
0.188127
0.0977842
0.0610057
0.0511412
0.0469699
0.0459409
0.0464533
0.0468448
0.0458827
0.0437239
0.0408975
0.0385804
0.0376502
0.0390711
0.0411597
0.0433266
0.0449351
0.0457856
0.0456517
0.0454991
0.04683
0.0513928
0.0618423
0.0989664
0.192266
0.18977
0.097528
0.0609174
0.0521691
0.0473875
0.0456782
0.0458618
0.0459088
0.0447142
0.0425657
0.0398806
0.0377072
0.0368377
0.0382198
0.0402104
0.042297
0.0439098
0.0449218
0.0450127
0.045123
0.0470854
0.0523468
0.0620999
0.100349
0.193534
0.190138
0.0981076
0.0608618
0.0535667
0.0480763
0.0455362
0.0453183
0.0450204
0.0436771
0.0416018
0.0390175
0.0369335
0.0360787
0.0374163
0.0393094
0.0413374
0.0429119
0.0440265
0.0444233
0.0448852
0.0476141
0.0534675
0.0619062
0.100326
0.194308
0.190711
0.0987128
0.0608965
0.0553011
0.0491405
0.0456079
0.0448516
0.0442165
0.0427693
0.0407095
0.0382188
0.0362281
0.0354016
0.0366846
0.0384881
0.040452
0.0420135
0.0432157
0.0439009
0.0448249
0.0484535
0.0553224
0.0618714
0.101172
0.194144
0.191327
0.0987216
0.0603156
0.056079
0.0504424
0.0459292
0.0445265
0.0434789
0.0419052
0.0398564
0.037464
0.0355683
0.0347635
0.0360345
0.0377724
0.0396799
0.0412311
0.0425015
0.0435302
0.0450084
0.0497652
0.056709
0.0617613
0.102565
0.19433
0.191052
0.0991087
0.0595821
0.0562566
0.0522856
0.046492
0.0443771
0.0428856
0.0411768
0.03911
0.0367946
0.0349742
0.0341885
0.0354082
0.0370685
0.0389254
0.0404923
0.0418808
0.0433127
0.0454691
0.0512342
0.0567597
0.0609594
0.102934
0.19495
0.191171
0.100025
0.0589748
0.0560221
0.0543654
0.0474912
0.0444502
0.0424647
0.0405621
0.0384434
0.0361889
0.0344216
0.0336456
0.034831
0.0364323
0.0382554
0.0398794
0.0414445
0.0433335
0.0463553
0.0536008
0.0565218
0.0600793
0.103686
0.194846
0.191716
0.10034
0.0582495
0.0554582
0.0554273
0.0489434
0.0447332
0.042257
0.0400544
0.0378269
0.0355978
0.0338986
0.0331531
0.0343156
0.03587
0.0376889
0.0394125
0.0412589
0.0435499
0.0477852
0.0552402
0.0560145
0.0596178
0.105244
0.195117
0.191773
0.10092
0.0578387
0.054737
0.0552396
0.0513183
0.0454213
0.0422506
0.039724
0.0373362
0.0350965
0.0334284
0.0326872
0.0338256
0.0353489
0.0371961
0.0390903
0.0412048
0.0439981
0.0499378
0.0552152
0.0551715
0.0589903
0.106098
0.195206
0.191994
0.102098
0.057994
0.0540542
0.0546601
0.0530966
0.046834
0.0424217
0.0396161
0.0369975
0.0346818
0.0330169
0.0322811
0.0333966
0.0349059
0.0368307
0.038989
0.0413514
0.0451064
0.0521114
0.0546654
0.0543647
0.0585765
0.10717
0.195012
0.19221
0.102512
0.0576347
0.053394
0.0537996
0.0533053
0.0490288
0.0429234
0.0396117
0.0368245
0.0343498
0.032661
0.0319314
0.0330491
0.0345942
0.0366702
0.0389893
0.0418508
0.0471573
0.052862
0.0537969
0.0537787
0.0589024
0.108421
0.194898
0.192026
0.103094
0.0579729
0.0528761
0.0528448
0.052817
0.0512963
0.0444707
0.039844
0.0367792
0.0341973
0.0324184
0.0316251
0.0327916
0.0344303
0.0366252
0.0391365
0.0430607
0.0500812
0.0524655
0.0528689
0.0531873
0.0589758
0.108945
0.194725
0.191704
0.10398
0.05863
0.0525363
0.0520887
0.0521488
0.0518406
0.0472349
0.0405942
0.0368207
0.0341732
0.0323203
0.0314609
0.0326856
0.0343979
0.0366543
0.0396962
0.0457684
0.051701
0.0518868
0.0521252
0.0527865
0.0593318
0.109278
0.194004
0.190638
0.103824
0.0587712
0.0522401
0.0514641
0.0513912
0.0514203
0.0497449
0.0425202
0.0370314
0.0341767
0.032319
0.031444
0.0326928
0.0344201
0.0368711
0.0415932
0.0486695
0.0512315
0.0511919
0.0515457
0.0526231
0.0602057
0.10963
0.192328
0.188011
0.103219
0.0590443
0.0520451
0.0509796
0.0506816
0.050888
0.0503578
0.0459041
0.0380443
0.0343076
0.0323275
0.0314409
0.0326947
0.0345231
0.0377048
0.0448917
0.0496747
0.050624
0.0505323
0.0510635
0.052451
0.060418
0.108599
0.189553
0.180565
0.100997
0.0591189
0.0518171
0.0506316
0.0501445
0.0502408
0.0499774
0.048396
0.040615
0.03482
0.0324565
0.0315084
0.0328099
0.0349101
0.040033
0.0476397
0.0493569
0.0499165
0.0500137
0.0507286
0.0522454
0.0602648
0.105611
0.182139
0.128826
0.276787
0.355145
0.389099
0.403162
0.405438
0.40901
0.422099
0.450215
0.488493
0.527261
0.56046
0.588526
0.610993
0.619763
0.592337
0.565988
0.549629
0.534611
0.526596
0.521661
0.515578
0.507848
0.496607
0.478739
0.450786
0.407014
0.34134
0.24614
0.114411
0.12651
0.281493
0.348638
0.375798
0.38702
0.389083
0.3911
0.401256
0.42622
0.464322
0.506012
0.543542
0.575406
0.601431
0.613829
0.596915
0.568868
0.550523
0.534208
0.521661
0.515703
0.50842
0.499541
0.487263
0.468674
0.440324
0.396433
0.331365
0.238394
0.112608
0.137064
0.29449
0.347989
0.368037
0.379298
0.38037
0.379927
0.385604
0.404097
0.438796
0.480917
0.521897
0.556645
0.584509
0.599641
0.592128
0.567036
0.548254
0.530635
0.515839
0.507374
0.498892
0.489085
0.475829
0.456294
0.42729
0.383525
0.319366
0.229749
0.110907
0.14538
0.30028
0.350744
0.371276
0.386309
0.387212
0.382696
0.378422
0.386156
0.413316
0.453181
0.496335
0.534624
0.565715
0.584262
0.585685
0.565379
0.54648
0.526807
0.509946
0.498003
0.488412
0.477736
0.463548
0.443146
0.413534
0.369973
0.307037
0.220992
0.109035
0.14916
0.302647
0.366067
0.395265
0.420371
0.419729
0.406335
0.386002
0.377266
0.391008
0.423976
0.46719
0.50873
0.542702
0.564999
0.573369
0.560599
0.543737
0.52286
0.503091
0.48802
0.476928
0.465389
0.450303
0.429095
0.398861
0.355574
0.294436
0.21225
0.107294
0.152794
0.309462
0.403472
0.453579
0.49691
0.492696
0.464299
0.418543
0.384833
0.377522
0.398032
0.437394
0.480537
0.517445
0.543948
0.55656
0.552363
0.539796
0.519626
0.496444
0.478487
0.464782
0.452222
0.436222
0.414239
0.383536
0.340826
0.282047
0.204273
0.105871
0.156872
0.32537
0.473267
0.563716
0.626858
0.61624
0.574988
0.488319
0.414755
0.376543
0.37805
0.409121
0.451523
0.490442
0.520657
0.537448
0.539578
0.534771
0.516766
0.490815
0.468561
0.452502
0.438512
0.421667
0.399076
0.368208
0.326437
0.269829
0.196414
0.10469
0.162197
0.356835
0.584783
0.696444
0.733536
0.712673
0.676578
0.594422
0.471893
0.39252
0.367323
0.384805
0.423495
0.462805
0.495456
0.516534
0.524456
0.523341
0.51361
0.486974
0.458976
0.440082
0.424816
0.407339
0.384307
0.353208
0.312275
0.257461
0.187841
0.102657
0.169046
0.412953
0.704773
0.785608
0.782118
0.746964
0.721261
0.666819
0.543307
0.423414
0.367324
0.365859
0.397464
0.435858
0.46961
0.493993
0.507357
0.507881
0.510034
0.484904
0.450988
0.427346
0.410958
0.392917
0.369638
0.338276
0.29653
0.242783
0.1776
0.0998455
0.177861
0.49848
0.80636
0.838403
0.792952
0.740846
0.722799
0.695323
0.596672
0.459629
0.375807
0.353541
0.375003
0.410768
0.444158
0.470634
0.488626
0.490381
0.496755
0.487333
0.445616
0.414737
0.395142
0.376348
0.351677
0.319445
0.278793
0.228399
0.168557
0.0974467
0.189333
0.609625
0.893656
0.872202
0.791095
0.726289
0.707215
0.700503
0.616249
0.487682
0.386706
0.347104
0.356746
0.388115
0.420024
0.447769
0.46873
0.472845
0.479827
0.484198
0.444638
0.402621
0.377925
0.356991
0.33234
0.301379
0.263365
0.216795
0.161564
0.0957243
0.204185
0.733585
0.965356
0.896313
0.785177
0.707402
0.682817
0.693898
0.621051
0.504262
0.393682
0.342803
0.342244
0.368284
0.398382
0.426748
0.449628
0.456113
0.462214
0.470298
0.451699
0.394161
0.362158
0.339226
0.315291
0.285997
0.250248
0.206767
0.155541
0.0942042
0.222948
0.84764
1.02353
0.913594
0.777297
0.688694
0.655818
0.67268
0.614598
0.505704
0.394424
0.337311
0.330652
0.352036
0.379976
0.408207
0.432512
0.440759
0.445945
0.453937
0.454718
0.39576
0.349161
0.323904
0.299692
0.271926
0.238208
0.197621
0.149985
0.0928202
0.243908
0.948648
1.07413
0.924133
0.769096
0.675277
0.635778
0.649207
0.602223
0.495272
0.389197
0.331275
0.321753
0.339127
0.36495
0.39262
0.417998
0.427303
0.431492
0.438561
0.442564
0.412624
0.343073
0.31023
0.285697
0.258823
0.227092
0.189228
0.14496
0.0915565
0.265951
1.04161
1.11676
0.92555
0.76275
0.667692
0.622401
0.62568
0.588
0.479201
0.379755
0.32629
0.316041
0.330229
0.353838
0.380306
0.406125
0.416221
0.418702
0.424727
0.427548
0.421743
0.351551
0.299777
0.273059
0.246521
0.216821
0.181526
0.140449
0.090408
0.289131
1.12974
1.15345
0.927428
0.759776
0.66302
0.611769
0.600285
0.56726
0.467053
0.371805
0.323787
0.313401
0.325409
0.346466
0.371221
0.397347
0.407633
0.407687
0.412035
0.413451
0.411643
0.378952
0.298701
0.261962
0.235677
0.207369
0.17453
0.136426
0.0893726
0.314394
1.21489
1.18612
0.932857
0.762734
0.661742
0.605252
0.577168
0.534043
0.456362
0.368676
0.324641
0.315029
0.323946
0.342582
0.364958
0.389882
0.401537
0.398567
0.400595
0.40053
0.397685
0.387016
0.317174
0.255511
0.226003
0.198588
0.168128
0.132755
0.0884366
0.34284
1.29662
1.21717
0.943241
0.770703
0.667262
0.605802
0.560895
0.507822
0.441297
0.373451
0.331276
0.320797
0.325195
0.341237
0.361192
0.383488
0.394864
0.391449
0.390773
0.388749
0.384189
0.377034
0.348634
0.262129
0.218448
0.191032
0.16198
0.129326
0.0875419
0.3716
1.37305
1.2492
0.961065
0.783435
0.680017
0.615432
0.557047
0.49411
0.42998
0.376992
0.342598
0.328875
0.330865
0.34391
0.360962
0.378847
0.386344
0.385959
0.382499
0.378002
0.371646
0.363339
0.34884
0.291573
0.217733
0.184661
0.156603
0.125823
0.0865195
0.40035
1.44699
1.28424
0.985777
0.804287
0.702638
0.634794
0.566231
0.493009
0.425267
0.380212
0.3548
0.341077
0.341591
0.350458
0.362829
0.374286
0.376798
0.377495
0.374838
0.368139
0.35977
0.350248
0.337851
0.31145
0.231941
0.181169
0.152058
0.122767
0.0852911
0.441489
1.50789
1.31923
1.0196
0.837848
0.737527
0.667725
0.592827
0.50939
0.433122
0.389554
0.367994
0.357194
0.353372
0.357206
0.364719
0.368277
0.367227
0.367707
0.364644
0.358852
0.348852
0.338129
0.32548
0.307145
0.261721
0.185269
0.14874
0.120506
0.084585
0.470407
1.57179
1.36335
1.06768
0.887414
0.785485
0.715143
0.639651
0.549361
0.459891
0.407035
0.382907
0.373102
0.36451
0.363596
0.364917
0.361822
0.358595
0.357638
0.354087
0.347701
0.33859
0.327192
0.314326
0.297355
0.270724
0.203325
0.148628
0.118741
0.0841428
0.498968
1.59649
1.39834
1.12881
0.953596
0.84747
0.772598
0.701085
0.612246
0.509388
0.435915
0.401195
0.38611
0.3756
0.368349
0.362146
0.35662
0.352083
0.348845
0.344451
0.337297
0.328622
0.31765
0.304808
0.288194
0.267237
0.228354
0.155945
0.11801
0.0837983
0.517552
1.60274
1.43362
1.21235
1.04458
0.928239
0.842444
0.771871
0.689469
0.581254
0.48349
0.426045
0.398571
0.385941
0.37211
0.361571
0.353499
0.348103
0.342219
0.336276
0.328728
0.320151
0.309542
0.296764
0.280817
0.261526
0.234535
0.176286
0.120581
0.0836732
0.519974
1.44709
1.4787
1.33322
1.16665
1.02918
0.927725
0.853003
0.774969
0.672893
0.557659
0.46711
0.416382
0.394937
0.376073
0.362782
0.352672
0.345827
0.337998
0.330636
0.323094
0.314123
0.303239
0.290497
0.275096
0.256738
0.233951
0.197522
0.130607
0.0842562
0.114645
0.247512
0.342818
0.408099
0.451334
0.478994
0.496717
0.507956
0.51565
0.521421
0.526273
0.535072
0.550483
0.567861
0.596665
0.618289
0.607448
0.583749
0.554725
0.519857
0.480009
0.442167
0.415509
0.40256
0.39909
0.397007
0.383686
0.350871
0.274545
0.129273
0.112819
0.239687
0.332738
0.397459
0.440821
0.469001
0.487475
0.499786
0.508639
0.515496
0.521724
0.534948
0.55165
0.571251
0.600134
0.611798
0.597214
0.570167
0.537168
0.498121
0.45598
0.418775
0.395733
0.386449
0.385434
0.383595
0.371224
0.3453
0.279289
0.127073
0.1111
0.230943
0.320689
0.384512
0.427799
0.456712
0.476112
0.489404
0.499256
0.507278
0.516205
0.531655
0.549656
0.569366
0.594408
0.597024
0.580011
0.551131
0.515037
0.472887
0.430934
0.39799
0.381883
0.378096
0.379665
0.378342
0.365761
0.346028
0.292294
0.137326
0.109219
0.222119
0.308357
0.37093
0.414099
0.443654
0.463911
0.478099
0.488878
0.498043
0.510541
0.528157
0.548229
0.567542
0.586677
0.581205
0.560871
0.528879
0.489191
0.44537
0.406685
0.382182
0.377629
0.384764
0.390034
0.388611
0.372415
0.351109
0.298518
0.145821
0.107435
0.213293
0.295703
0.356528
0.399513
0.429675
0.450744
0.465802
0.477472
0.488549
0.503979
0.524536
0.545595
0.562604
0.571872
0.561697
0.537701
0.502658
0.459967
0.416986
0.386456
0.37652
0.389578
0.413776
0.42866
0.427817
0.40061
0.369578
0.301918
0.14959
0.105984
0.205225
0.283219
0.341773
0.384271
0.41488
0.436723
0.452704
0.465396
0.479298
0.497733
0.521632
0.541593
0.553706
0.554952
0.540507
0.512357
0.474374
0.430682
0.392612
0.375965
0.388801
0.429103
0.481517
0.510372
0.51257
0.465134
0.410812
0.310491
0.153191
0.104783
0.197262
0.270968
0.327353
0.368953
0.39972
0.422165
0.439008
0.4532
0.469575
0.492557
0.518782
0.53616
0.540498
0.535466
0.516943
0.485391
0.445602
0.403369
0.37501
0.379224
0.425723
0.509746
0.60044
0.63874
0.647983
0.58417
0.485533
0.328762
0.157564
0.102728
0.188654
0.258591
0.313142
0.35397
0.38486
0.407779
0.425291
0.44083
0.460373
0.489023
0.51545
0.523656
0.524928
0.514096
0.491702
0.457956
0.417977
0.380439
0.367477
0.400488
0.491287
0.62092
0.696788
0.728911
0.75118
0.714993
0.601427
0.363609
0.162918
0.0998985
0.178369
0.243823
0.297522
0.338984
0.370073
0.393243
0.411343
0.42818
0.452723
0.486875
0.510499
0.507881
0.507298
0.491429
0.466091
0.431526
0.392837
0.363489
0.371358
0.436731
0.566897
0.686714
0.734247
0.758222
0.79695
0.802297
0.721814
0.423988
0.170124
0.0975077
0.169308
0.229434
0.279863
0.320366
0.352402
0.376802
0.395635
0.41582
0.447578
0.488733
0.496534
0.490657
0.487696
0.468187
0.440976
0.40696
0.371524
0.353598
0.383431
0.476445
0.616546
0.709201
0.730786
0.752358
0.807296
0.85594
0.824318
0.513848
0.179385
0.0957728
0.162254
0.217812
0.264524
0.302491
0.333358
0.35788
0.378797
0.404132
0.446684
0.483772
0.479282
0.473221
0.46737
0.445494
0.417298
0.384937
0.354552
0.349517
0.396501
0.50617
0.633492
0.712019
0.71485
0.738413
0.806177
0.891671
0.912651
0.628195
0.191396
0.0942324
0.156155
0.207681
0.251342
0.287122
0.316407
0.340312
0.36337
0.39609
0.453061
0.469368
0.461522
0.456646
0.448126
0.424683
0.396091
0.365829
0.341235
0.346922
0.404838
0.521677
0.637392
0.703547
0.690503
0.718915
0.801033
0.917752
0.985543
0.752807
0.207269
0.0928334
0.150538
0.198451
0.239228
0.273016
0.300815
0.325067
0.350636
0.397818
0.453917
0.45281
0.445268
0.440995
0.430963
0.406351
0.378091
0.350226
0.3306
0.342474
0.406769
0.521847
0.631068
0.681309
0.662978
0.700299
0.793405
0.936522
1.04681
0.865507
0.226647
0.0915595
0.145461
0.189995
0.228048
0.25988
0.286821
0.311457
0.344725
0.413505
0.441082
0.437237
0.430599
0.427363
0.416352
0.390871
0.363401
0.337849
0.322314
0.336763
0.401439
0.510778
0.618827
0.656577
0.644207
0.68745
0.785269
0.947325
1.09971
0.966898
0.247646
0.090404
0.140896
0.182217
0.217708
0.247547
0.274174
0.301076
0.352904
0.420643
0.425948
0.423319
0.417722
0.416141
0.404512
0.378682
0.35247
0.329249
0.316746
0.331216
0.39131
0.49453
0.603891
0.63273
0.631984
0.680323
0.778828
0.948843
1.14432
1.0614
0.269695
0.0893643
0.136822
0.175137
0.208173
0.236653
0.263068
0.299921
0.378818
0.410038
0.411856
0.410523
0.406553
0.407611
0.395654
0.369618
0.345252
0.32472
0.314296
0.32771
0.381115
0.482179
0.580256
0.608911
0.622251
0.676565
0.776399
0.951638
1.18324
1.15157
0.29276
0.0884217
0.133076
0.16866
0.19933
0.226929
0.256588
0.317654
0.385875
0.396043
0.398883
0.398987
0.397408
0.40194
0.387994
0.363393
0.341388
0.323184
0.316027
0.327862
0.376495
0.469367
0.545944
0.58772
0.616453
0.675853
0.779896
0.958468
1.2185
1.23881
0.317659
0.0875119
0.129512
0.162456
0.191722
0.219341
0.262917
0.347827
0.375688
0.382581
0.387128
0.389289
0.390415
0.394432
0.38143
0.359335
0.339889
0.324482
0.321321
0.334118
0.379493
0.450463
0.518158
0.572018
0.617437
0.68146
0.788645
0.969847
1.25199
1.32269
0.345785
0.0864517
0.12588
0.157062
0.185325
0.218533
0.291357
0.347804
0.36192
0.370078
0.376516
0.381483
0.385054
0.38587
0.376951
0.359436
0.342519
0.330294
0.328955
0.345331
0.381503
0.436764
0.503746
0.568642
0.62763
0.694189
0.801735
0.988574
1.2864
1.40145
0.37424
0.0852249
0.122833
0.152507
0.181829
0.232547
0.310982
0.336785
0.348792
0.35835
0.366991
0.374187
0.376614
0.376387
0.373067
0.361384
0.349113
0.340768
0.341022
0.356494
0.384081
0.431809
0.503041
0.578335
0.647182
0.716727
0.822676
1.01435
1.32392
1.47856
0.402261
0.0845299
0.120669
0.149227
0.186034
0.261869
0.306515
0.324357
0.336731
0.347655
0.357725
0.363793
0.366859
0.366899
0.367831
0.363318
0.356256
0.352879
0.357544
0.368652
0.392539
0.43991
0.51995
0.604699
0.68009
0.751886
0.856716
1.04895
1.36067
1.54211
0.444571
0.0840995
0.119023
0.149265
0.204148
0.270427
0.296679
0.313386
0.325974
0.337572
0.346924
0.353052
0.35697
0.358363
0.361491
0.364589
0.362973
0.364505
0.373958
0.384348
0.41069
0.467963
0.560598
0.651984
0.727979
0.80092
0.907653
1.09768
1.40604
1.60812
0.47306
0.0837614
0.118339
0.156789
0.228633
0.266735
0.287487
0.303692
0.316658
0.327932
0.336956
0.343345
0.348342
0.351824
0.356496
0.363787
0.368993
0.375591
0.387059
0.40399
0.441911
0.519816
0.625241
0.715199
0.787567
0.864768
0.975508
1.15993
1.44088
1.63366
0.501188
0.0836299
0.120964
0.177421
0.234402
0.260944
0.280158
0.29586
0.308859
0.319815
0.32869
0.335684
0.341813
0.347747
0.353737
0.362705
0.373135
0.386791
0.399773
0.430406
0.4927
0.594683
0.704241
0.787827
0.859212
0.947143
1.06833
1.24432
1.47538
1.63837
0.519515
0.0842369
0.131397
0.198041
0.233622
0.256125
0.274531
0.289731
0.302595
0.313735
0.322799
0.330755
0.337904
0.345672
0.353025
0.363765
0.377383
0.396193
0.419344
0.474148
0.569974
0.688392
0.790881
0.870411
0.946564
1.05008
1.19141
1.36659
1.51647
1.47945
0.521539
0.147925
0.14675
0.144736
0.14275
0.140795
0.138788
0.136795
0.134774
0.132814
0.130864
0.128986
0.127155
0.125394
0.123688
0.122067
0.120513
0.11909
0.117747
0.116501
0.115364
0.114293
0.113345
0.112487
0.11173
0.11109
0.110534
0.110022
0.110077
0.110687
0.111898
0.113873
0.1168
0.121042
0.126455
0.132862
0.139843
0.147062
0.154279
0.161405
0.168002
0.174047
0.179093
0.183314
0.186629
0.189457
0.192358
0.194946
0.19521
0.191576
0.186135
0.180644
0.175651
0.171455
0.167607
0.162932
0.157812
0.15243
0.147423
0.142636
0.138785
0.135993
0.134255
0.132922
0.131803
0.130952
0.130328
0.129783
0.129218
0.128636
0.12793
0.12734
0.126856
0.126487
0.126271
0.126183
0.126152
0.126129
0.126107
0.126082
0.126057
0.126046
0.12606
0.126094
0.126143
0.126194
0.126206
0.126125
0.125942
0.125683
0.125384
0.125076
0.124785
0.124538
0.124346
0.124203
0.124083
0.123956
0.123793
0.12358
0.123318
0.123021
0.122741
0.122512
0.122288
0.122004
0.121712
0.121434
0.121143
0.12095
0.120988
0.121332
0.121902
0.122588
0.123315
0.124121
0.125067
0.126534
0.127241
0.127501
0.126639
0.122708
0.112933
0.103109
0.0929254
0.0867854
0.248675
0.247345
0.242841
0.239385
0.235067
0.230915
0.22658
0.222618
0.218704
0.215363
0.212733
0.210456
0.208912
0.207962
0.207126
0.207093
0.206547
0.207875
0.207792
0.210213
0.213238
0.216835
0.222834
0.228878
0.236957
0.245896
0.257285
0.271323
0.287848
0.307815
0.33254
0.362483
0.396868
0.43426
0.473615
0.512703
0.552079
0.588899
0.623267
0.654176
0.682038
0.706575
0.72744
0.744028
0.75566
0.764016
0.769407
0.770771
0.760004
0.729902
0.69229
0.653207
0.614606
0.577114
0.53789
0.500074
0.46505
0.434141
0.405852
0.382015
0.361437
0.34338
0.329018
0.3179
0.309774
0.304424
0.300435
0.297273
0.294679
0.292644
0.291015
0.28952
0.288202
0.287469
0.287251
0.287069
0.286538
0.285494
0.28383
0.281634
0.27919
0.276704
0.274268
0.271921
0.269639
0.267292
0.264722
0.261873
0.258766
0.255474
0.252112
0.248817
0.245701
0.242806
0.240127
0.237625
0.235233
0.232848
0.230405
0.227848
0.225226
0.222878
0.221008
0.219684
0.218983
0.218693
0.218731
0.218951
0.219327
0.219983
0.221136
0.223886
0.226778
0.230161
0.232441
0.230522
0.221704
0.213472
0.204957
0.196773
0.189307
0.183705
0.178918
0.171811
0.153536
0.29446
0.295903
0.293956
0.292852
0.291105
0.289566
0.287875
0.2861
0.284068
0.282645
0.281556
0.280699
0.28098
0.281776
0.283279
0.285992
0.288959
0.294192
0.298877
0.30658
0.315734
0.326592
0.341293
0.357985
0.378647
0.402718
0.431348
0.464174
0.502501
0.544842
0.589562
0.637675
0.682914
0.72621
0.76784
0.807508
0.845363
0.881886
0.916685
0.948827
0.979096
1.00743
1.03413
1.05828
1.07912
1.09552
1.10499
1.10833
1.10895
1.10103
1.078
1.04275
0.9991
0.943545
0.875744
0.806937
0.740497
0.679389
0.621436
0.570134
0.52584
0.488732
0.458705
0.435379
0.416771
0.401039
0.388226
0.378475
0.371489
0.366331
0.362242
0.358884
0.356171
0.354131
0.352525
0.350996
0.34928
0.347304
0.345077
0.342576
0.339736
0.336571
0.33312
0.329379
0.325401
0.32133
0.317301
0.313342
0.30945
0.305608
0.301795
0.297977
0.29414
0.290319
0.286595
0.283056
0.279817
0.27702
0.274745
0.273061
0.271834
0.270835
0.269948
0.269188
0.268634
0.268544
0.268966
0.269985
0.271746
0.273621
0.27489
0.273715
0.265854
0.256335
0.245971
0.235922
0.227338
0.220792
0.215802
0.211567
0.208669
0.206361
0.206033
0.205962
0.204534
0.315463
0.319249
0.31945
0.320964
0.321623
0.322612
0.323552
0.324969
0.326722
0.329657
0.333552
0.337867
0.344088
0.350789
0.359391
0.369711
0.380928
0.396082
0.410525
0.429455
0.450551
0.473341
0.498542