/*--------------------------------*- C++ -*----------------------------------*\
| =========                 |                                                 |
| \\      /  F ield         | OpenFOAM: The Open Source CFD Toolbox           |
|  \\    /   O peration     | Version:  2112                                  |
|   \\  /    A nd           | Website:  www.openfoam.com                      |
|    \\/     M anipulation  |                                                 |
\*---------------------------------------------------------------------------*/
FoamFile
{
    version     2.0;
    format      ascii;
    arch        "LSB;label=32;scalar=64";
    class       volVectorField;
    location    "0.00612";
    object      U;
}
// * * * * * * * * * * * * * * * * * * * * * * * * * * * * * * * * * * * * * //

dimensions      [0 1 -1 0 0 0 0];

internalField   nonuniform List<vector> 
13875
(
(2204.17 109.694 1.81271e-18)
(2142.47 5.62769 -9.38747e-19)
(2170.26 -2.17443 -9.4109e-19)
(2167.84 -0.737772 0)
(2170.41 0.113201 0)
(2169.38 -1.3229 9.36753e-19)
(2169.52 -1.22374 -9.37001e-19)
(2169.56 -0.281318 -4.68654e-19)
(2169.34 -0.209537 4.68348e-19)
(2169.35 0.129363 0)
(2169.4 0.503017 -3.88333e-22)
(2169.43 1.10902 -3.88125e-22)
(2169.57 0.939826 0)
(2169.39 -0.00984928 -4.68229e-19)
(2169.44 -0.923652 4.68597e-19)
(2169.62 -1.29097 0)
(2169.87 -0.248086 9.37062e-19)
(2169.21 0.355532 -9.37823e-19)
(2169.12 0.940382 3.87947e-22)
(2169.82 1.18283 -3.85749e-22)
(2170.44 -0.179491 -9.36288e-19)
(2167.86 0.286901 9.37151e-19)
(2171.08 2.49315 -1.87789e-18)
(2143.7 -8.67998 1.91636e-18)
(2210.42 -106.734 1.76334e-18)
(2253.4 91.9355 -1.63245e-18)
(2228.46 -1.16379 1.88336e-18)
(2247.41 0.689254 8.71841e-19)
(2245.48 0.887848 -8.67116e-19)
(2248.49 -0.54599 4.16928e-22)
(2247.61 1.92547 5.20231e-22)
(2245.82 1.49322 4.16208e-22)
(2245.46 0.400241 -4.35774e-19)
(2245.02 0.428603 4.36003e-19)
(2245.05 -0.0512153 2.17627e-19)
(2245.13 -0.696564 -1.63028e-19)
(2245.35 -1.49685 -5.31698e-20)
(2247.67 -1.18669 0)
(2247.86 0.052692 -4.34999e-19)
(2247.55 1.03301 4.33465e-19)
(2245.61 1.43222 4.36021e-19)
(2245.52 0.473961 -4.35306e-19)
(2245.21 -0.261509 5.18493e-22)
(2245.69 -1.55204 -5.18685e-22)
(2247.85 -1.95609 5.1978e-22)
(2248.39 0.770894 -8.71459e-19)
(2245.58 -0.685321 2.59977e-18)
(2247.26 -1.58938 -1.74253e-18)
(2229 3.63919 5.42741e-22)
(2256.5 -96.9556 -1.71316e-18)
(2252.4 78.123 0)
(2236.34 -18.2407 0)
(2249.5 4.42817 0)
(2250.6 -1.85922 0)
(2253.52 -2.56676 -1.63942e-18)
(2253.31 1.62309 1.64232e-18)
(2253.15 2.1177 1.72249e-18)
(2253.23 0.597361 -2.58199e-18)
(2253.44 0.00333643 8.61727e-19)
(2253.74 0.103724 4.30731e-22)
(2253.64 0.127257 -4.31e-19)
(2253.09 -2.30224 4.29775e-19)
(2254.12 -2.55431 0)
(2254 0.0187844 0)
(2254.04 2.36038 4.08181e-22)
(2253.2 1.99531 0)
(2254.06 0.245003 8.38134e-22)
(2253.06 -0.278421 4.30556e-19)
(2253.07 -2.53247 -4.30746e-19)
(2253.52 -1.762 0)
(2253.71 2.34564 0)
(2250.92 1.33362 0)
(2250.7 -4.79962 0)
(2237.97 13.8631 0)
(2256.97 -74.7095 0)
(2247.86 51.3569 0)
(2235.04 -28.6842 1.81421e-18)
(2249.29 7.18932 -3.41685e-18)
(2251.6 -4.77077 3.46604e-18)
(2253.29 -3.07729 -1.63493e-18)
(2253.28 1.42757 0)
(2253.53 1.72047 -8.42107e-22)
(2254.12 -0.102691 0)
(2254.23 -0.384729 0)
(2254.22 -0.245274 0)
(2254.49 0.305123 0)
(2254.21 -1.97497 -8.44227e-22)
(2254.09 -2.45184 -5.08357e-20)
(2253.97 0.0106536 5.06638e-20)
(2254 2.27668 0)
(2254.26 1.80746 0)
(2254.72 0.317683 7.99496e-22)
(2254.16 0.399661 -8.59568e-19)
(2253.78 -1.78189 8.55777e-19)
(2253.4 -1.5084 -1.62429e-18)
(2253.55 2.72811 1.62371e-18)
(2251.99 4.32166 1.74097e-18)
(2249.76 -8.8635 -1.72058e-18)
(2235.69 31.3532 0)
(2251.63 -58.3844 0)
(2244.89 39.2823 1.74899e-18)
(2235.44 -47.8753 0)
(2248.74 10.4461 0)
(2250.32 -7.67343 0)
(2253.47 -4.26929 0)
(2253.26 0.943599 1.67821e-21)
(2253.46 1.13303 1.68737e-21)
(2254.21 -0.64596 4.32743e-19)
(2254.21 -0.581018 -4.30294e-19)
(2254.13 -0.324573 2.01807e-19)
(2254.46 0.370939 -2.04193e-19)
(2254.29 -1.43164 0)
(2254.14 -2.22918 0)
(2253.91 -0.0331276 -1.66327e-21)
(2254.05 2.08094 0)
(2254.31 1.36397 -1.68504e-21)
(2254.7 0.335552 8.08604e-19)
(2254 0.758241 -8.53256e-19)
(2253.46 -1.26037 1.71371e-18)
(2253.51 -0.884481 -1.6928e-18)
(2253.59 3.71839 1.65296e-21)
(2250.69 6.44069 0)
(2250.03 -11.5196 0)
(2237.26 42.8836 0)
(2250.64 -35.2471 0)
(2241.5 6.7547 0)
(2231.54 -63.6196 9.12421e-19)
(2247.2 12.2387 -8.47611e-19)
(2250.87 -11.2349 0)
(2252.49 -4.97209 8.5987e-19)
(2252.83 0.316728 -4.3707e-19)
(2253.58 0.433321 -2.97996e-21)
(2254.25 -1.07411 -2.18648e-19)
(2254.11 -0.827287 -4.27902e-19)
(2254.01 -0.586082 1.61071e-19)
(2254.38 0.36357 1.61759e-21)
(2254.18 -1.13107 2.68527e-19)
(2253.99 -2.05474 -2.15074e-19)
(2253.79 -0.0414653 3.3778e-21)
(2253.88 1.89324 -4.27033e-19)
(2254.22 1.16582 4.33193e-19)
(2254.63 0.395894 1.63953e-21)
(2254.13 1.39936 -1.68418e-21)
(2253.71 -0.368422 -1.67851e-21)
(2252.95 -0.429035 -8.59989e-19)
(2252.76 4.07202 8.45839e-19)
(2251.44 10.6581 0)
(2247.39 -15.1718 0)
(2232.46 65.4108 -1.93352e-18)
(2246.21 -18.9042 -1.26532e-19)
(2254.03 2.90029 -4.95247e-20)
(2227.49 -79.3458 6.02427e-20)
(2243.04 12.2145 0)
(2248.47 -15.6735 -2.69184e-23)
(2252.12 -6.82112 -2.62379e-23)
(2252.57 -0.897115 0)
(2253.25 -0.484773 0)
(2254.27 -1.72588 -8.62912e-19)
(2253.9 -0.805268 8.41256e-19)
(2253.74 -0.584856 0)
(2254.17 0.417748 1.6795e-18)
(2254.12 -0.644179 4.99392e-21)
(2253.94 -1.61648 -1.71943e-18)
(2253.62 -0.0913009 -1.70203e-21)
(2253.86 1.45349 0)
(2254.19 0.704211 3.4451e-18)
(2254.41 0.438496 2.13193e-21)
(2253.78 1.80217 -6.90586e-18)
(2253.06 0.3 3.45079e-18)
(2252.79 0.858331 2.64244e-23)
(2252.25 6.00603 0)
(2248.52 12.9331 3.52635e-18)
(2244.17 -12.5279 -3.30916e-18)
(2228.89 72.887 3.81521e-18)
(2247.26 2.84005 -3.18133e-18)
(2218.36 -22.8436 -3.16997e-19)
(2214.7 -87.4753 -7.49642e-18)
(2235.65 3.48062 8.7067e-22)
(2246.05 -22.4804 2.61163e-23)
(2248.77 -9.01857 -8.09127e-22)
(2251.13 -2.51919 0)
(2252.95 -1.78775 -3.44554e-18)
(2253.88 -2.18298 3.45176e-18)
(2253.55 -1.08365 0)
(2253.41 -0.922861 -8.29894e-22)
(2253.87 0.185078 -8.23218e-22)
(2253.83 -0.426912 0)
(2253.56 -1.43189 0)
(2253.28 -0.00916292 -1.64348e-21)
(2253.46 1.27433 -8.34992e-22)
(2253.93 0.551946 2.59816e-23)
(2254.11 0.74834 -8.55049e-22)
(2253.56 2.56333 -2.62989e-23)
(2252.89 1.78324 -1.73346e-18)
(2251.38 2.29744 -1.60466e-20)
(2249.25 7.94462 1.68905e-18)
(2246.4 19.3669 8.85278e-22)
(2236.74 -4.77097 3.45879e-18)
(2216.55 81.4785 -3.53715e-18)
(2222.3 18.1363 2.5033e-23)
(2113.25 -37.8672 9.42637e-19)
(2168.61 -98.6126 0)
(2217.09 -20.1996 -8.31534e-22)
(2234.93 -32.3811 -8.65909e-19)
(2245.77 -17.6593 1.70966e-18)
(2248.96 -6.65585 -1.72922e-18)
(2251.43 -3.74747 9.13512e-21)
(2253.06 -3.11624 8.59647e-19)
(2252.67 -0.977047 0)
(2252.63 -0.873215 -8.43875e-19)
(2253.15 0.231015 8.47192e-19)
(2253.28 0.184064 0)
(2253.02 -0.828608 0)
(2252.66 -0.219486 2.09041e-21)
(2252.91 0.506179 8.28951e-22)
(2253.27 0.0499055 8.40074e-19)
(2253.29 0.931799 -8.4324e-19)
(2252.56 3.39026 0)
(2251.24 3.4326 8.6116e-19)
(2249.44 5.92249 -1.72834e-18)
(2246.19 14.9949 8.45197e-19)
(2236.15 28.8438 -8.40932e-22)
(2218.97 16.6529 0)
(2171.29 93.9043 0)
(2117.05 35.3278 0)
(1873.51 -142.249 -6.57038e-17)
(2125.75 -161.394 8.4247e-17)
(2198.88 -54.8476 0)
(2229.21 -54.2866 -2.99292e-17)
(2239.68 -21.9153 3.06667e-17)
(2246.42 -11.1145 0)
(2249.63 -7.83851 -2.95263e-20)
(2251.37 -4.38224 -1.46164e-17)
(2251.23 -1.85094 1.45585e-17)
(2251.31 -1.61109 -2.9306e-20)
(2251.89 -0.400818 0)
(2252.06 0.151151 -3.69371e-18)
(2251.77 -0.529131 5.58555e-18)
(2251.41 -0.111799 -1.8948e-18)
(2251.58 0.468925 -2.91287e-20)
(2251.92 0.443084 0)
(2251.8 1.82317 0)
(2250.91 5.16442 -2.9474e-17)
(2249.36 7.70891 2.90865e-17)
(2246.58 10.1702 -3.05834e-17)
(2240.47 20.3097 2.91677e-17)
(2229.47 52.7801 3.22243e-17)
(2199.97 52.6402 -2.92333e-17)
(2128.75 162.03 -8.33772e-17)
(1884.64 138.393 -1.25772e-17)
(1652.94 -215.595 -9.08359e-17)
(2011.43 -307.643 1.37622e-16)
(2159.5 -104.572 0)
(2210.7 -64.8793 6.83232e-17)
(2232.69 -29.783 -7.08275e-17)
(2241.82 -15.8408 -3.40775e-17)
(2245.4 -7.96537 3.39273e-17)
(2247.9 -3.60562 -3.28922e-17)
(2248.14 -1.33479 3.32631e-17)
(2248.58 -1.04576 3.24812e-20)
(2249.39 0.0720555 0)
(2249.63 0.844513 -2.1123e-18)
(2249.37 0.239775 2.16575e-18)
(2248.95 -0.365189 3.31068e-20)
(2249.02 -0.621924 3.25656e-20)
(2249.14 -0.499691 3.27163e-20)
(2248.9 0.860106 0)
(2247.86 4.62275 0)
(2244.93 7.71286 -6.77172e-17)
(2242.11 15.3863 6.82839e-17)
(2233.53 26.6842 -7.13757e-17)
(2211.8 58.8868 1.46891e-16)
(2165.84 98.6585 -7.00321e-17)
(2016.38 298.346 -3.87155e-20)
(1697.7 205.929 8.7535e-20)
(1281.21 -592.821 -1.08921e-16)
(1742.25 -591.24 1.18911e-16)
(2046.23 -180.963 2.16889e-16)
(2173.61 -107.286 -9.35118e-17)
(2208.29 -37.127 0)
(2229.49 -20.6913 7.43882e-17)
(2238.05 -13.0458 -7.5199e-17)
(2241.25 -6.78364 0)
(2242.08 -4.05434 3.54363e-20)
(2243.03 -3.0933 0)
(2244.07 -1.22985 0)
(2244.33 0.441109 0)
(2244.19 0.568701 4.66007e-18)
(2243.77 0.119774 -4.64458e-18)
(2243.68 0.194289 -3.71726e-20)
(2243.39 0.98931 -3.53228e-20)
(2242.78 2.97288 0)
(2241.27 7.32637 0)
(2237.53 14.1533 0)
(2228.23 19.1762 -7.89126e-17)
(2211.29 37.2104 1.56974e-16)
(2176.43 102.042 -7.23156e-17)
(2054.35 162.771 -1.33443e-16)
(1750.27 592.779 1.00453e-16)
(1285.78 543.827 -5.9942e-20)
(1301.58 -610.497 1.6078e-16)
(1113.39 -1086.41 0)
(1699.69 -455.44 0)
(1924.63 -128.708 -1.08895e-16)
(2148.06 -83.9645 1.09653e-16)
(2199.87 -43.1651 0)
(2214.49 -13.1251 1.1341e-20)
(2222.68 -4.85513 4.04369e-17)
(2226.31 -1.54274 -4.10129e-17)
(2228.91 -0.559409 0)
(2230.74 0.616061 -1.00643e-17)
(2231.21 1.45274 1.0139e-17)
(2231.34 1.39281 -5.0903e-18)
(2230.9 0.0015295 5.09019e-18)
(2230.42 -1.11111 3.85787e-20)
(2229.06 -1.61578 -4.0651e-17)
(2226.57 -0.50332 8.06966e-17)
(2222.44 4.18339 1.02712e-18)
(2212.59 12.9872 -4.04715e-17)
(2196.86 44.7212 -9.09612e-17)
(2132.97 71.5819 8.44997e-17)
(1910.11 107.928 8.29375e-20)
(1757.24 448.369 2.61858e-20)
(1103.71 1071.59 1.67228e-16)
(1319.43 612.284 7.12695e-18)
(1358.52 -629.619 0)
(1142.86 -1059.37 0)
(1289.42 -752.946 0)
(1205.74 -828.147 0)
(1955.07 -259.29 0)
(2040.22 -61.4123 1.03261e-16)
(2151.42 -46.7719 -1.05026e-16)
(2170.5 -30.2392 1.18181e-19)
(2179.66 -19.4274 -1.03597e-20)
(2186.69 -12.4739 2.27304e-17)
(2190.28 -5.83816 -2.29687e-17)
(2191.39 -1.23039 -2.29385e-19)
(2191.72 0.785737 -7.11715e-19)
(2191.26 2.51896 8.08708e-19)
(2190.25 4.96035 -2.28213e-17)
(2187.19 9.97482 2.25903e-17)
(2179.85 18.9119 1.01308e-19)
(2169.66 32.101 0)
(2147.03 53.3239 0)
(2014.54 86.0841 0)
(1914.9 325.805 -2.11531e-16)
(1180.19 822.422 -5.98089e-17)
(1295.56 706.726 1.63612e-16)
(1135.41 1022.35 2.05802e-20)
(1369.03 618.975 2.08617e-20)
(1436.05 -621.014 0)
(1271.36 -927.864 3.95763e-20)
(1319.53 -781.491 0)
(1228.47 -851.953 -1.66538e-16)
(1318.25 -785.755 3.14067e-16)
(1614.56 -570.661 -2.05812e-16)
(1922.37 -120.873 0)
(1950.9 -14.4377 -1.02105e-19)
(1986.97 14.766 0)
(2025.98 13.8117 0)
(2040.53 9.03997 -1.43404e-17)
(2046.12 3.926 1.46478e-17)
(2047.09 2.90984 1.44537e-17)
(2046.54 -0.475432 -1.45526e-17)
(2043.3 -3.97747 0)
(2031.62 -9.91439 -6.00764e-17)
(1995.2 -16.1514 6.05959e-17)
(1945.63 12.5573 7.16779e-17)
(1931.91 135.587 -6.0783e-17)
(1597.34 584.806 0)
(1301.22 793.45 0)
(1206.31 844.754 -1.66624e-19)
(1329.23 774.488 -1.70939e-16)
(1266.87 920.856 3.66571e-16)
(1424.91 618.885 -1.69462e-16)
(1517.52 -629.499 -1.69685e-16)
(1388.46 -848.812 1.87015e-16)
(1379.63 -751.296 0)
(1273.7 -808.144 -1.92043e-16)
(1305.84 -768.844 -7.24877e-18)
(1286.39 -736.583 2.81111e-16)
(1240.94 -589.138 -1.99181e-16)
(1259.5 -489.893 1.21747e-16)
(1400.81 -311.371 0)
(1515.84 -151.037 0)
(1491.86 -77.457 -4.2755e-20)
(1494.97 -26.4895 2.89333e-19)
(1486.05 -5.70696 0)
(1490.96 21.8753 0)
(1494.92 60.01 6.10337e-17)
(1511.05 136.998 -5.77124e-17)
(1485.41 287.521 -1.16929e-16)
(1257 519.158 2.31888e-16)
(1231.98 586.738 1.69728e-17)
(1264.75 749.097 -8.91434e-17)
(1288.93 765.816 0)
(1248.66 808.587 0)
(1377.88 748.423 -1.75243e-16)
(1353.53 877.436 2.03848e-16)
(1500.91 639.754 -4.58987e-20)
(1655.48 -607.438 1.5782e-16)
(1555.09 -746.52 -9.71621e-20)
(1521.59 -679.97 9.58016e-17)
(1467.54 -706.313 -8.45719e-17)
(1394.68 -664.862 -4.54412e-20)
(1308.52 -586.338 8.95957e-20)
(1182.06 -438.066 1.18323e-16)
(845.608 -263.522 -1.83228e-16)
(566.294 -97.4621 6.36311e-17)
(470.186 -61.1926 0)
(335.198 -10.135 -3.36298e-17)
(299.78 -9.58876 3.36892e-17)
(268.385 3.0371 0)
(283.965 -0.598224 6.11976e-20)
(319.866 9.09208 -3.3512e-17)
(442.077 33.6561 3.39285e-17)
(609.422 105.287 0)
(784.589 201.528 -1.19195e-16)
(1149.01 421.212 1.18133e-16)
(1290.9 577.313 9.10292e-17)
(1373.77 658.998 -1.91408e-16)
(1440.65 728.004 1.00295e-16)
(1518.14 707.907 0)
(1541.73 780.131 1.68875e-16)
(1645.88 624.056 -3.27323e-18)
(1810.66 -546.227 -3.42658e-18)
(1746.07 -578.464 8.12235e-17)
(1680.25 -516.865 -3.71036e-17)
(1511.21 -388.375 -5.79294e-17)
(1440.4 -332.557 7.25444e-17)
(1370.61 -256.85 -5.15213e-17)
(1250.84 -201.527 5.40505e-17)
(874.483 -94.3862 -6.14307e-17)
(653.336 -58.7195 -2.09204e-19)
(577.75 -76.763 3.32572e-17)
(476.501 -46.8412 1.65241e-17)
(451.635 -33.3757 -1.55089e-19)
(437.717 1.16551 -1.66627e-17)
(445.632 24.2687 -6.30794e-20)
(471.519 55.7732 -7.74796e-20)
(568.571 59.0383 -2.08916e-18)
(703.32 75.4456 5.00115e-21)
(865.499 121.578 5.60177e-18)
(1247.63 189.622 -3.55633e-18)
(1362.07 249.922 0)
(1427.79 370.897 1.08729e-17)
(1522.26 429.943 -3.49238e-17)
(1688.66 554.067 4.23111e-17)
(1741.66 610.861 -5.68994e-17)
(1806.1 565.499 5.36263e-17)
(1985.55 -503.589 -8.68589e-20)
(1945.71 -338.003 -1.05365e-19)
(1886.5 -289.012 1.24548e-19)
(1754.67 -182.391 -5.72317e-21)
(1481.02 0.841248 -1.8633e-19)
(1392.7 10.156 -1.98361e-19)
(1351.73 -66.612 -7.28618e-21)
(1170.91 -91.0829 0)
(953.492 -122.472 0)
(861.952 -121.63 6.55735e-17)
(790.072 -74.2503 -6.6271e-17)
(748.693 -34.559 -8.98833e-21)
(731.161 10.0016 8.95505e-21)
(738.902 46.6498 -8.56208e-18)
(775.899 105.251 8.31735e-18)
(851.645 142.214 0)
(943.844 142.863 0)
(1143.65 111.912 -5.81571e-17)
(1336.33 76.5953 5.54479e-17)
(1360.17 -13.7292 -1.90467e-19)
(1458.38 -18.1516 0)
(1754.71 178.092 0)
(1887.68 279.264 -1.28674e-19)
(1935.35 342.975 -1.0996e-19)
(1983.95 522.335 1.2383e-16)
(1556.56 -181.095 -1.88071e-16)
(1745.62 -92.2166 -2.45256e-16)
(1868.1 115.606 1.19543e-16)
(1794.14 178.175 0)
(1597.43 228.795 2.05261e-19)
(1502.78 148.792 1.06848e-16)
(1504.3 25.5094 -2.08597e-16)
(1402.25 -30.3219 1.07359e-16)
(1202.53 -75.5255 -1.21672e-16)
(1059.24 -90.7072 1.25001e-16)
(950.206 -50.8659 3.28176e-17)
(894.449 -20.0228 -4.08847e-17)
(873.127 12.0052 -8.25327e-18)
(889.188 37.7051 1.66923e-17)
(952.06 82.319 0)
(1068.98 109.701 0)
(1208.75 93.0129 1.1806e-16)
(1389.84 46.1425 -2.22452e-16)
(1496.95 -9.89638 1.0814e-16)
(1490.83 -142.924 2.30731e-19)
(1592.61 -242.108 1.63912e-16)
(1780.22 -200.214 -9.03035e-17)
(1846.57 -160.673 -4.82422e-16)
(1722.04 96.4542 6.50536e-16)
(1555.6 169.084 -2.59653e-16)
(49.6582 -63.4041 1.15828e-19)
(679.749 -22.5269 -2.58683e-16)
(1443.78 427.824 1.6451e-16)
(1700.6 530.687 0)
(1651.05 443.442 0)
(1606.75 261.905 0)
(1606.4 117.956 0)
(1528.39 57.1377 0)
(1348.88 8.11103 -5.21654e-17)
(1195.02 -22.4843 1.08694e-16)
(1081.32 -13.2513 -8.46342e-17)
(1015.53 -4.1947 3.21363e-17)
(996.666 12.8285 -3.60971e-18)
(1019.17 21.9064 1.4971e-20)
(1095.69 41.5079 -5.58245e-17)
(1218.26 39.0843 5.58077e-17)
(1366.64 8.70994 0)
(1530.38 -41.8434 0)
(1609.24 -108.371 -1.70932e-16)
(1603.77 -271.763 1.83519e-16)
(1660.55 -454.247 -1.67315e-19)
(1703.61 -530.064 6.90415e-20)
(1385.32 -485.084 -9.58902e-20)
(608.167 29.0492 -1.15577e-19)
(28.4528 28.8955 0)
(-311.601 -21.4273 -2.16672e-16)
(539.406 328.134 2.22896e-16)
(1340.1 741.116 -1.60776e-19)
(1675.13 757.9 1.58421e-16)
(1717.61 585.351 -1.22858e-16)
(1691.99 362.937 0)
(1678.3 219.052 -8.12379e-17)
(1615.27 147.486 7.48515e-17)
(1455.43 87.4872 -4.49862e-17)
(1306.18 34.1615 9.38897e-17)
(1193.02 21.0231 -4.83249e-17)
(1133.01 8.55036 1.82845e-19)
(1111.86 8.97598 0)
(1138.81 2.27188 2.48647e-17)
(1212.89 -3.22893 2.32636e-17)
(1336.13 -26.1807 -4.7796e-17)
(1476.3 -81.075 -8.25358e-17)
(1617.13 -146.38 8.41042e-17)
(1682.27 -215.539 -7.04782e-17)
(1693.11 -379.238 7.96656e-17)
(1717.93 -607.959 8.13755e-20)
(1674.3 -763.707 -7.38087e-20)
(1303.92 -760.518 0)
(485.753 -305.329 1.03587e-19)
(-227.535 13.0672 0)
(382.947 383.492 1.88512e-16)
(950.004 776.054 -1.77921e-16)
(1469.58 911.197 5.97184e-20)
(1718.33 862.585 0)
(1774.67 675.046 0)
(1744 480.162 -7.23149e-21)
(1717.45 339.889 0)
(1668.65 243.416 7.41182e-20)
(1534.28 164.272 0)
(1401.12 92.5994 4.17537e-17)
(1299.21 52.8603 -6.41036e-17)
(1235.7 22.308 3.26188e-17)
(1217.17 7.60312 -1.09723e-17)
(1241.55 -15.695 0)
(1316.1 -39.5768 0)
(1424.92 -88.6663 3.92628e-17)
(1548 -157.607 -1.10773e-16)
(1667.51 -241.081 7.32834e-17)
(1723.45 -334.379 -5.92997e-17)
(1748.75 -478.126 7.07211e-17)
(1780.35 -682.758 0)
(1725.88 -860.517 0)
(1468.83 -917.512 0)
(956.542 -750.755 -1.05144e-20)
(319.442 -332.669 -1.95273e-16)
(467.604 247.169 -3.53291e-20)
(1228.41 798.643 1.48443e-16)
(1592.34 963.391 -1.11696e-16)
(1774.51 898.105 0)
(1803.71 733.805 0)
(1767.27 569.762 7.48679e-21)
(1753.44 438.364 6.38394e-17)
(1717.09 315.798 -5.75139e-17)
(1596.69 221.19 3.05802e-20)
(1477.82 134.169 3.3181e-20)
(1385.41 81.7972 3.4928e-20)
(1331.93 34.5326 -1.03181e-20)
(1311.11 4.82603 -1.03578e-20)
(1336.45 -31.9895 1.92671e-17)
(1399.7 -75.0971 -1.94114e-17)
(1500.09 -133.182 4.27351e-20)
(1610.01 -215.419 3.946e-20)
(1715.45 -319.509 0)
(1756.64 -434.491 -5.30123e-17)
(1775.14 -564.077 6.29095e-17)
(1811.05 -735.773 0)
(1782.35 -895.062 -9.55412e-17)
(1599.54 -968.159 1.15807e-16)
(1259.58 -828.634 8.56199e-21)
(549.031 -332.448 -1.79341e-16)
(680.19 258.936 4.04237e-20)
(1368.81 811.812 0)
(1668.89 959.702 0)
(1806.25 902.48 -4.89508e-17)
(1814.66 773.306 4.64007e-17)
(1781.33 633.758 0)
(1781.44 507.144 5.84431e-17)
(1751.55 379.41 -5.29652e-17)
(1646.96 272.149 3.206e-17)
(1544.21 172.732 -3.23105e-17)
(1464.82 103.253 1.77149e-17)
(1412 45.4036 -1.78099e-17)
(1396.5 2.72593 0)
(1417.94 -47.8684 -1.7654e-17)
(1479.77 -102.231 1.7748e-17)
(1564.92 -180.573 -3.50441e-20)
(1658.96 -272.737 -3.25525e-20)
(1750.99 -385.455 5.19439e-20)
(1782.04 -511.056 4.89402e-17)
(1785.11 -633.104 -5.75142e-17)
(1823.37 -780.079 -4.636e-20)
(1813.54 -906.716 -4.35656e-20)
(1676.12 -964.277 0)
(1390.05 -822.906 -6.57561e-20)
(699.789 -315.888 3.94651e-20)
(757.849 247.422 1.53851e-22)
(1442.02 767.459 0)
(1721.88 913.303 8.94829e-23)
(1810.9 900.885 4.1876e-20)
(1814.8 804.93 -8.65059e-23)
(1794.23 684.069 -5.18461e-17)
(1810.02 562.925 4.55234e-17)
(1789.58 424.075 0)
(1694.19 311.904 -5.9524e-20)
(1603.8 206.146 -1.08614e-22)
(1531.53 127.859 -1.13989e-22)
(1489.58 55.0222 6.87296e-20)
(1471.75 0.825715 0)
(1493.5 -58.7873 0)
(1543.41 -127.475 -1.13598e-22)
(1621.05 -210.767 -1.08204e-22)
(1703.43 -311.703 -2.66805e-17)
(1787.19 -431.579 7.58256e-17)
(1808.65 -564.864 -5.28578e-17)
(1796.95 -682.174 0)
(1822.32 -805.841 -4.39108e-17)
(1822.65 -902.965 4.43489e-17)
(1727.96 -932.47 8.78756e-23)
(1498.14 -793.133 5.58742e-20)
(854.775 -327.042 1.49095e-22)
(868.086 273.779 5.07997e-18)
(1535.01 731.183 1.3748e-17)
(1770.27 871.066 9.45584e-17)
(1814.87 889.568 -4.10603e-17)
(1821.54 805.864 4.24142e-17)
(1812.48 704.328 -4.722e-17)
(1835.56 590.946 4.28546e-17)
(1813.69 460.704 -2.53413e-17)
(1729.29 346.958 2.48511e-17)
(1654.78 233.763 1.15285e-22)
(1595.64 143.187 1.2078e-22)
(1553.71 63.9507 -1.23198e-22)
(1540.73 0.736441 7.41543e-18)
(1557.46 -69.3798 7.25836e-18)
(1606.68 -143.948 -1.49009e-17)
(1670 -241.339 1.149e-22)
(1737.78 -345.462 4.96007e-17)
(1812.39 -463.174 -9.6246e-17)
(1836.54 -591.773 4.85488e-17)
(1812.55 -703.734 0)
(1827.98 -813.323 -8.30858e-23)
(1828.55 -893.918 7.6701e-23)
(1769.16 -899.099 -8.08972e-23)
(1565.24 -756.454 -1.15737e-16)
(949.349 -300.56 1.37559e-16)
(937.911 281.516 1.34965e-19)
(1588.77 689.55 0)
(1789.63 822.92 0)
(1815.09 868.077 3.89164e-20)
(1829.43 798.758 8.04954e-20)
(1831.82 714.805 0)
(1863.42 611.59 4.48161e-17)
(1842.73 478.309 -4.26655e-17)
(1764.66 362.674 4.46683e-20)
(1700.66 249.109 -4.78672e-20)
(1647.43 156.987 -1.37612e-17)
(1616.49 67.6997 1.37113e-17)
(1601.64 -3.51927 3.56548e-18)
(1619.8 -80.4373 -3.46694e-18)
(1657.93 -164.855 1.33126e-17)
(1716.48 -262.35 -3.84036e-17)
(1774.13 -373.383 2.49903e-17)
(1840.26 -493.55 -4.66496e-20)
(1858.88 -622.261 3.94059e-20)
(1830.63 -724.311 -4.00539e-17)
(1832.36 -809.69 1.47711e-18)
(1826.55 -874.24 -1.20106e-18)
(1795.37 -839.113 3.98534e-17)
(1599.61 -697.631 5.22168e-20)
(971.132 -293.105 6.55178e-20)
(938.804 272.805 1.27921e-16)
(1617.25 633.684 -1.04584e-16)
(1815.03 777.534 0)
(1829.69 844.86 -3.772e-17)
(1840.89 783.024 1.47559e-19)
(1854.06 714.315 3.88851e-17)
(1886.2 619.578 4.18881e-17)
(1861.44 499.029 -4.02085e-17)
(1793.49 388.743 -4.72527e-20)
(1742.72 271.113 -2.46306e-17)
(1701.55 170.064 1.19469e-17)
(1668.77 78.2837 1.26335e-17)
(1658.01 1.0365 -5.37577e-20)
(1669.85 -83.235 0)
(1707.81 -169.957 0)
(1753.86 -276.812 0)
(1799.44 -384.939 4.73096e-20)
(1858.66 -499.536 9.76886e-21)
(1886.29 -618.994 -4.98703e-20)
(1853.98 -716.274 0)
(1842.37 -794.171 3.83059e-20)
(1837.72 -853.142 9.11149e-21)
(1822.49 -795.12 -4.71899e-20)
(1651.48 -646.866 -1.01378e-16)
(1036.73 -280.191 1.237e-16)
(975.778 270.173 6.2246e-17)
(1645.7 570.95 -9.14389e-17)
(1831.15 710.348 8.09625e-17)
(1836.73 800.794 -3.98699e-17)
(1854.36 758.234 -3.75239e-17)
(1873.37 702.036 3.7212e-17)
(1908.12 623.319 1.931e-17)
(1884.09 504.499 -1.90958e-17)
(1822.57 391.169 1.08761e-17)
(1780.42 275.448 -2.24945e-17)
(1741.66 177.739 1.7405e-17)
(1719.94 80.1833 -7.37602e-18)
(1707.54 -1.73225 1.48701e-18)
(1721.69 -89.9612 -4.3682e-20)
(1749.64 -182.737 2.29485e-17)
(1793.81 -286.232 -2.31086e-17)
(1831.58 -399.405 3.92619e-20)
(1881.58 -513.264 3.82017e-17)
(1905 -630.094 -2.34192e-18)
(1874.21 -710.285 -3.80268e-17)
(1852.35 -769.694 0)
(1841.72 -815.345 3.96285e-17)
(1834.01 -738.382 -3.59041e-17)
(1663.7 -592.083 -9.79785e-17)
(1035.57 -267.921 -3.65814e-18)
(1060.32 281.035 -5.90168e-17)
(1682.22 515.896 4.67814e-17)
(1853.93 650.084 1.86584e-20)
(1855.19 760.839 -5.28431e-20)
(1874.18 735.991 1.85797e-20)
(1897.57 685.331 3.56075e-17)
(1929.03 604.943 -1.71704e-17)
(1898.08 498.258 -1.84374e-17)
(1844.64 397.221 4.17322e-20)
(1813.74 283.269 -4.42269e-20)
(1786.3 179.145 2.02818e-20)
(1761.24 81.6859 -2.05943e-20)
(1753.9 -2.85622 0)
(1762.62 -95.6537 5.27222e-21)
(1791.7 -188.075 -1.07264e-17)
(1824.58 -297.853 1.08489e-17)
(1852.8 -404.229 -1.95709e-17)
(1896.99 -511.214 1.09359e-18)
(1927.22 -616.288 1.82432e-17)
(1894.72 -693.758 -5.22369e-20)
(1872.26 -749.849 -3.70882e-17)
(1859.84 -774.454 3.42202e-17)
(1856.49 -660.497 0)
(1672.49 -517.439 -4.74032e-17)
(1033.37 -257.727 5.89187e-17)
(1061 276.156 0)
(1699.5 455.41 -3.9741e-17)
(1863.87 569.853 4.29704e-17)
(1862.09 697.866 1.74656e-20)
(1889.98 706.764 1.7267e-20)
(1915.79 667.019 -3.41485e-17)
(1943.46 601.894 3.42434e-17)
(1917.14 501.629 1.84533e-17)
(1871.08 398.827 8.07483e-19)
(1847.14 285.564 -1.97967e-17)
(1819.09 187.532 -2.15299e-20)
(1804.3 86.8552 2.41626e-20)
(1794.15 0.151198 0)
(1804.83 -93.4629 4.34326e-20)
(1824.39 -188.967 -2.15004e-20)
(1858.37 -293.374 9.85584e-18)
(1880.66 -404.206 -9.76588e-18)
(1913.87 -507.62 -1.84942e-20)
(1940.82 -607.955 -1.9279e-20)
(1915.41 -673.094 1.70943e-20)
(1886.19 -716.85 -3.67735e-17)
(1863.35 -714.181 -5.97612e-18)
(1870 -587.565 3.29814e-17)
(1704.05 -455.64 0)
(1096.23 -283.521 5.85432e-17)
(1122.36 281.888 -1.12546e-16)
(1730.51 406.05 4.37008e-17)
(1877.18 509.003 3.20875e-17)
(1884.12 639.731 -3.94753e-17)
(1910.41 678.392 0)
(1939.53 648.726 -2.04163e-21)
(1962.12 578.837 0)
(1928.7 485.524 -2.21578e-21)
(1889 395.956 -2.34603e-21)
(1873.26 287.264 0)
(1855.94 184.096 0)
(1836.76 85.9063 -2.56507e-21)
(1831.98 -1.50013 0)
(1837.82 -97.3791 0)
(1859.95 -190.72 -9.63118e-18)
(1883.04 -299.149 9.68395e-18)
(1898.28 -399.841 -2.3486e-21)
(1928.83 -495.872 -1.72417e-17)
(1958.85 -588.284 1.65697e-17)
(1936.64 -655.989 0)
(1908.7 -691.973 3.53583e-17)
(1885.07 -653.696 -7.18082e-17)
(1881.44 -512.874 7.39754e-17)
(1730.44 -399.236 5.65032e-18)
(1117.96 -267.072 -5.62517e-17)
(1174.36 269.878 1.3371e-20)
(1750.55 362.315 -1.01903e-20)
(1873.86 434.733 0)
(1894.55 580.468 0)
(1920.95 631.809 0)
(1957.12 620.06 7.58567e-21)
(1971.14 565.525 0)
(1943.48 477.586 -7.90584e-21)
(1913.24 387.811 0)
(1903.85 278.524 -8.53904e-21)
(1881.7 183.409 0)
(1872.6 84.5103 -2.34945e-18)
(1864.53 -2.56 2.34267e-18)
(1873.25 -97.1791 0)
(1886.64 -190.568 9.2197e-18)
(1913.58 -292.216 -1.81986e-17)
(1923.49 -398.5 8.83314e-18)
(1943.05 -488.562 0)
(1968.88 -576.473 1.6078e-17)
(1955.08 -628.901 -1.56175e-17)
(1917.63 -643.581 3.55748e-17)
(1897.09 -592.675 -3.12679e-17)
(1880.79 -428.329 0)
(1746.62 -347.288 0)
(1157.08 -272.264 0)
(1198.34 265.8 -1.30439e-20)
(1758.6 334.186 1.00195e-20)
(1877.48 372.529 0)
(1915.73 479.701 0)
(1942.05 592.753 0)
(1975.78 603.941 -7.51802e-21)
(1989.79 543.927 0)
(1955.84 457.052 8.2484e-21)
(1930.01 380.239 0)
(1924.67 280.737 -8.82916e-18)
(1913.7 182.301 8.81465e-18)
(1898.67 86.404 -8.40266e-21)
(1895.52 0.230703 9.24202e-21)
(1898.96 -94.721 8.39739e-21)
(1915.7 -185.314 0)
(1932.37 -288.017 0)
(1939.77 -382.264 8.64899e-21)
(1957.58 -464.313 -1.63118e-17)
(1986.09 -550.39 1.54213e-17)
(1973.27 -612.156 0)
(1938.92 -606.66 7.71377e-21)
(1915.61 -499.368 0)
(1879.41 -368.897 0)
(1770.54 -317.405 0)
(1234.74 -277.056 0)
(1226.33 246.784 -5.04004e-17)
(1773.48 306.341 4.05203e-17)
(1889.78 296.485 0)
(1925.87 406.01 -1.66581e-20)
(1952.93 538.663 0)
(1984.69 563.146 -1.44219e-17)
(1997.91 522.586 3.05255e-17)
(1968.69 446.801 -1.58395e-17)
(1950.58 369.795 -8.17059e-18)
(1952.03 268.161 8.36783e-18)
(1933.79 178.194 4.36297e-21)
(1928.75 83.1677 1.11046e-18)
(1921.83 -1.55691 -1.07228e-18)
(1928.85 -94.4898 8.46049e-18)
(1937.8 -183.337 -8.56466e-18)
(1960.82 -279.982 0)
(1961.87 -379.189 -1.53095e-20)
(1968.94 -456.572 0)
(1996.06 -533.196 0)
(1982.89 -574.786 -1.59874e-17)
(1947.7 -551.354 1.46017e-17)
(1923.83 -420.972 0)
(1887.95 -281.603 3.68742e-17)
(1780.83 -287.334 2.48516e-18)
(1241.65 -254.237 -1.01569e-16)
(1279.22 238.488 5.00004e-17)
(1796.16 277.567 1.90764e-20)
(1898.72 248.014 3.03557e-17)
(1931.79 325.28 -2.40574e-17)
(1967.61 491.615 -1.75484e-17)
(2000.22 535.688 0)
(2015.23 498.291 7.68489e-21)
(1981.39 420.668 1.52177e-17)
(1965.67 352.543 -1.59235e-17)
(1967.99 262.02 0)
(1960.89 171.753 0)
(1949.22 80.5981 -2.59248e-20)
(1947.31 -2.05158 3.20807e-20)
(1949.41 -94.3434 1.6892e-20)
(1962.32 -179.915 4.05937e-18)
(1974.8 -274.004 -4.0613e-18)
(1976.55 -360.302 8.53865e-21)
(1986.24 -432.408 1.54871e-17)
(2012.14 -507.338 -2.9773e-17)
(1998.25 -545.819 1.38647e-17)
(1967.6 -501.571 -1.474e-20)
(1932.09 -325.43 0)
(1896.77 -242.423 1.69336e-20)
(1806.59 -264.935 3.98342e-17)
(1291.19 -238.711 -9.73557e-17)
(1291.48 202.642 -4.9094e-17)
(1809.65 250.883 -3.7259e-17)
(1905.44 191.295 3.4722e-17)
(1921.29 251.185 1.44533e-17)
(1976.01 421.449 -1.81291e-17)
(2006.18 476.905 0)
(2020.51 468.847 3.7579e-21)
(1992.6 410.786 -1.10329e-20)
(1985.14 346.17 7.63764e-18)
(1992.92 251.452 -1.56422e-17)
(1977.24 169.632 7.92019e-18)
(1974.69 80.351 1.9728e-18)
(1968.73 0.0995749 -1.8569e-18)
(1974.51 -89.1147 1.83114e-18)
(1979.69 -171.828 -1.9865e-18)
(1999.97 -260.092 0)
(1995.5 -352.782 1.13263e-20)
(1993.49 -418.66 -3.56972e-21)
(2019.35 -480.18 -1.52925e-17)
(2003.23 -493.417 1.37048e-17)
(1971.24 -437.985 0)
(1920.84 -263.19 0)
(1903.31 -182.321 -4.15792e-21)
(1822.46 -238.646 -3.90297e-17)
(1319.35 -196.9 -1.91926e-18)
(1328.1 180.126 -2.28264e-17)
(1822.84 229.211 1.92528e-17)
(1911.76 175.975 4.11494e-21)
(1906.69 175.772 0)
(1987.72 338.932 1.34471e-17)
(2017.43 439.555 -1.5996e-17)
(2034.57 444.643 3.45324e-21)
(2005.81 381.212 3.63776e-21)
(1999.12 325.224 1.41793e-20)
(2004.66 242.864 -1.8964e-18)
(1999.67 162.131 9.51836e-19)
(1990.73 76.8343 1.88178e-18)
(1989.64 -1.19768 -9.59889e-19)
(1991.05 -89.0369 3.84204e-18)
(2000.01 -167.993 -3.78949e-18)
(2010.24 -252.471 0)
(2011.11 -332.54 1.03956e-20)
(2012.05 -393.721 -1.49983e-17)
(2032.59 -452.193 1.35642e-17)
(2013.7 -450.879 3.45947e-21)
(1985.12 -355.137 0)
(1897.3 -174.161 0)
(1909.14 -171.279 4.11996e-21)
(1825.82 -225.552 -3.81454e-17)
(1340.13 -176.836 4.58195e-17)
(1365.26 149.525 2.30582e-20)
(1834.15 206.769 0)
(1921.61 154.266 -7.81438e-21)
(1911.84 115.304 -1.41878e-17)
(1989.07 250.923 1.82899e-17)
(2017.43 367.633 -1.31544e-17)
(2033.3 398.81 1.54031e-17)
(2011.7 365.356 -7.0081e-18)
(2015.99 315.817 7.4083e-18)
(2027.74 229.604 -3.64131e-18)
(2012.93 155.785 3.71549e-18)
(2012.1 72.6579 -1.81322e-18)
(2007.16 -2.45047 2.08459e-18)
(2012.17 -85.7098 -2.45301e-19)
(2014.6 -161.609 3.71268e-18)
(2033.63 -241.937 -7.30065e-18)
(2026.31 -324.991 -3.7904e-18)
(2015.85 -376.008 7.04405e-18)
(2034.45 -415.054 1.38084e-20)
(2017.51 -380.663 -7.02229e-21)
(1984.61 -243.667 0)
(1902.98 -119.549 0)
(1915.39 -153.974 0)
(1828.6 -211.403 -1.86363e-17)
(1359.24 -153.237 2.2521e-17)
(1385.66 140.821 -2.72902e-21)
(1838.58 192.804 0)
(1938.86 147.037 9.93718e-21)
(1918.82 60.1961 -8.00356e-21)
(1972.82 163.015 -7.20385e-21)
(2025.3 315.359 0)
(2044.34 364.897 -6.68376e-21)
(2026.12 332.568 6.79487e-18)
(2028.72 293.833 -7.34736e-18)
(2035.84 221.67 0)
(2031.73 151.446 1.69582e-21)
(2025.26 72.1944 0)
(2024.5 -0.143228 0)
(2024.79 -81.9799 1.80364e-18)
(2031.53 -154.114 -1.78824e-18)
(2040.4 -228.795 -7.24381e-21)
(2041.39 -299.979 -1.6886e-21)
(2033.6 -344.958 6.95025e-21)
(2041.04 -374.305 -7.60941e-18)
(2023.18 -331.532 6.43538e-18)
(1972.92 -169.529 -1.79476e-17)
(1911.04 -52.1984 3.10987e-17)