/*--------------------------------*- C++ -*----------------------------------*\
| =========                 |                                                 |
| \\      /  F ield         | OpenFOAM: The Open Source CFD Toolbox           |
|  \\    /   O peration     | Version:  2112                                  |
|   \\  /    A nd           | Website:  www.openfoam.com                      |
|    \\/     M anipulation  |                                                 |
\*---------------------------------------------------------------------------*/
FoamFile
{
    version     2.0;
    format      ascii;
    arch        "LSB;label=32;scalar=64";
    class       volScalarField;
    location    "0.00515";
    object      T;
}
// * * * * * * * * * * * * * * * * * * * * * * * * * * * * * * * * * * * * * //

dimensions      [0 0 0 1 0 0 0];

internalField   nonuniform List<scalar> 
13875
(
1411.99
1535.59
1482.4
1487.87
1481.86
1484.02
1484
1483.65
1484.61
1484.69
1484.3
1484.22
1483.44
1484.06
1483.91
1483.97
1484.15
1484.55
1484.55
1484.04
1481.69
1487.5
1480.61
1532.75
1396.85
1307.02
1356.17
1318.85
1322.23
1316.39
1318.1
1321.86
1322.59
1323.64
1323.7
1323.34
1323.14
1317.91
1317.85
1318.39
1323.11
1323.9
1323.67
1322.13
1318.32
1316.55
1321.91
1319.64
1355.99
1303.52
1307.22
1340.07
1314.26
1311.83
1305.24
1305.83
1305.54
1305.74
1306.65
1306.45
1306.3
1305.95
1303.79
1304.2
1303.78
1304.11
1305
1306.03
1305.86
1305.53
1304.76
1311.13
1311.5
1336.49
1298.28
1317.36
1344.82
1314.59
1308.78
1305.95
1306.07
1304.93
1304.61
1304.66
1304.06
1303.47
1303.89
1303.9
1304.21
1303.8
1302.67
1303.27
1303.74
1303.96
1305.75
1305.16
1307.85
1314.08
1343.95
1312
1329.51
1342.11
1315.67
1312.36
1305.04
1305.78
1305.61
1304.9
1304.84
1304.14
1303.49
1303.76
1303.84
1304.33
1303.74
1302.74
1303.37
1304.11
1304.96
1305.35
1304.95
1311.91
1312.29
1338.59
1315.98
1332.2
1351.14
1318.78
1309.99
1307.9
1307.35
1305.02
1304.78
1304.76
1304.06
1303.53
1304.02
1304.18
1304.56
1304.07
1302.93
1303.4
1304.06
1304.43
1306.92
1307.05
1308.72
1319.06
1349.05
1325.99
1338.98
1360.45
1329
1317.43
1308.11
1307.53
1306.88
1305.39
1305.3
1304.53
1303.73
1303.83
1304.55
1304.99
1304.38
1303.36
1303.86
1304.95
1306.21
1307.59
1307.92
1318.15
1326.22
1358.46
1321.51
1359.73
1384.69
1344.06
1321.25
1316.45
1311.14
1307.02
1305.72
1305.49
1305.15
1304.38
1304.91
1305.36
1305.8
1305.3
1304.41
1304.65
1305.58
1306.31
1310.18
1314.69
1320.61
1341.34
1381.1
1350.61
1537.2
1508.29
1387.26
1350.69
1322.38
1315.93
1311.82
1308.35
1307.26
1306.82
1305.99
1305.97
1306.83
1307.4
1306.82
1306.3
1306.91
1308.36
1310.44
1315.37
1321.96
1350.52
1384.43
1508.05
1523.9
1834.83
1574.33
1427.06
1359.02
1338.63
1321.8
1314.68
1311.47
1310.84
1310.12
1309.1
1309.07
1309.85
1310.5
1310.19
1310.1
1310.8
1312.32
1315.15
1320.97
1334.63
1355.25
1423.04
1566.1
1828.16
2507.47
1804.15
1519.44
1411.7
1351.49
1332.86
1327.45
1319.34
1318.1
1316.79
1315.33
1315.12
1315.88
1316.82
1316.86
1317.16
1318.45
1320.34
1327.72
1331.56
1349.83
1402.29
1508.65
1807.23
2440.24
2811.55
2299.32
1737.15
1462.15
1418.99
1366.71
1343.58
1335.68
1333.2
1330.97
1329.09
1328.82
1329.32
1330.32
1330.79
1331.73
1334.22
1337.11
1343.58
1371.6
1409.12
1452.26
1707.12
2289.34
2834.71
2785.99
2660.09
2354.28
2223.91
1533.52
1422.94
1406.27
1382.29
1374.28
1368.09
1364.1
1362.99
1362.9
1364.06
1365.72
1369.39
1376.08
1385.7
1410.44
1429.03
1575.15
2261.73
2309.69
2677.22
2776.46
2720.54
2656.86
2753.85
2749.37
2060.36
1870.75
1547.58
1516.15
1496.71
1484.52
1476.55
1474.24
1474.09
1475.09
1477.45
1484.49
1497.97
1519
1565.12
1929.16
2107.15
2767.2
2767.59
2694.05
2691.92
2589.63
2648.46
2696.06
2709.41
2626.66
2397.51
2139.34
2035.05
1974.1
1890.04
1847.86
1831.13
1827.78
1830.54
1840.78
1877.01
1960.91
2037.14
2071.38
2473.86
2665.72
2725.19
2711.62
2649.92
2634.86
2489.65
2530.98
2667.22
2732.23
2741.43
2780.36
2932.36
3216.15
3412.09
3494.26
3542.45
3546.59
3557.57
3552.86
3530.72
3470.77
3390.75
3244.13
2971.94
2787.87
2703.3
2728.62
2678.06
2549.6
2521.34
2339.32
2433.91
2458.88
2548.29
2734.91
2866.37
3141
3454.42
3633.83
3678.06
3659.04
3640.78
3631.69
3638.63
3658.15
3688.02
3653.28
3502.62
3171.69
2912.14
2767.2
2578.56
2477.04
2429.74
2353.61
2039.89
2163.72
2444.1
2698.97
2826.51
2963.53
3143.76
3441.93
3621.22
3658.48
3636.65
3617.66
3608.5
3617.2
3639.24
3665.05
3625.18
3454.44
3144.35
2939.85
2784.72
2668.05
2364.88
2145.16
2032.84
1855.01
1939.71
2042.38
2504.1
2791.35
2913.15
2956.06
3122
3346.59
3459.89
3490.71
3486.54
3483.07
3487.21
3495.56
3473.53
3362.13
3171.38
2991.03
2932.01
2829.33
2543.07
2034.56
1938.6
1859.52
2215.81
2189.97
2093.83
2371.83
2633.13
2701.46
2706.5
2865.58
3091.99
3275.15
3355.1
3370.33
3368.54
3372.07
3359.32
3282.92
3104.44
2894.59
2724.91
2729.21
2630.2
2373.12
2086.46
2239.54
2264.47
3825.62
2814.3
2292.8
2264.74
2438.27
2525.35
2543.25
2688.87
2918.92
3113.12
3219.06
3242.25
3245.34
3242.49
3217.44
3107.29
2911.43
2689.2
2542.18
2537.81
2425.5
2235.93
2301.09
2949.5
3806.79
3920.92
2811.61
2133.8
2031.33
2259.68
2362.21
2422.31
2554.96
2776.77
2975.24
3076.3
3107.74
3109.69
3104.06
3068.04
2961.31
2768.81
2546.22
2413.75
2363.06
2237.5
2017.64
2128.22
2963.63
3881.43
3653.41
2616.06
2067.74
1902.81
2133.24
2237.35
2323.46
2446.47
2654.09
2832.9
2936.33
2966.43
2974.06
2961.42
2927.24
2821.68
2646.07
2440.91
2314.78
2231.13
2110.05
1881.39
2084.68
2720.14
3710.94
3355.34
2462.14
1978.54
1846.76
2051.55
2140.33
2233.4
2346.49
2548.05
2714.31
2801.95
2840.69
2845.12
2833.9
2791.78
2702.91
2543.29
2340.94
2221.22
2130.2
2027.5
1821.32
1976.43
2470.13
3255.1
3141.56
2297.7
1930.15
1843.09
2000.81
2061.63
2141.14
2258.37
2449.99
2593.5
2688.12
2720.16
2727.76
2713.13
2676.49
2581.28
2437.52
2247.05
2136.14
2061.56
1986.25
1813.72
1925.77
2325.35
3179.63
3054.3
2254.77
1922.32
1847.48
1955.9
1997.35
2072.25
2178.58
2357.55
2495.26
2580.54
2617.54
2620.13
2611.31
2570.41
2489.95
2354.18
2170.87
2060.49
1996.83
1951.18
1823.19
1898.5
2228.3
3056.15
2945.63
2176
1907.26
1863.62
1934.81
1944.48
2002.56
2110.74
2276.72
2402.46
2495.54
2518.85
2523.49
2512.76
2484
2397.82
2275.19
2102.23
2000.61
1943.68
1932.77
1848.09
1901.2
2179.18
2974.47
2894.94
2206.96
1937.54
1871.55
1908.8
1899.1
1952.15
2055.32
2210.52
2337.48
2410.33
2435.57
2434.45
2430.71
2399.96
2333.28
2215.07
2046.81
1945.98
1902.28
1907.6
1854.13
1905.86
2204.96
2940.37
2906.21
2231.48
1941.19
1879.4
1906.43
1864.82
1903.5
2003.44
2152.01
2265.77
2341.55
2352.76
2355.88
2348.03
2334.31
2263.83
2166.83
2007.89
1904.21
1874.18
1913.22
1878.4
1927.65
2176.11
2902.91
2902.61
2253.95
1972.56
1887.43
1884.34
1847.43
1871.18
1974.27
2111.93
2221
2270.56
2284.76
2282.04
2279.97
2261.94
2214.78
2124.35
1980.94
1868.3
1858.33
1894.03
1878.43
1946.9
2233.2
2914.91
2877.11
2239.34
1978.73
1908.62
1872.32
1822.44
1852.64
1949.9
2079.29
2159.65
2213.91
2213.53
2217.12
2210.68
2207.56
2152.34
2085.34
1960.04
1843.27
1842.73
1886.69
1900.18
1961.43
2225.71
2902.01
2876.23
2237.47
2006.99
1915.68
1842.42
1811.98
1836.72
1935.16
2045.91
2122.21
2151.15
2156.77
2155.36
2155.22
2145.43
2114.61
2054.04
1953.04
1839.57
1815.7
1854.88
1911.22
1981.7
2219.86
2874.17
2853.3
2227.46
2032.77
1919.63
1856.49
1786.94
1834.83
1920.04
2020.07
2065.35
2103.59
2096.09
2101.1
2095.08
2098.8
2057.1
2016.27
1930.29
1839.74
1786.3
1868.55
1923.18
2022.18
2217.9
2866.98
2824.87
2209.46
2065.58
1943.12
1839.54
1774.73
1833.58
1910.55
1987.6
2036.96
2048.2
2048.78
2048.2
2049.03
2043.23
2028.02
1985.6
1917.76
1840.96
1769.02
1836.71
1940.97
2047.21
2212.96
2847.1
2823.76
2203.26
2064.25
1943.29
1846.57
1775.89
1829.55
1889.17
1956.86
1984.25
2006.65
1996.66
2001.9
1996.3
2004.39
1976.04
1948.01
1893.87
1842.3
1778.45
1852.07
1938.11
2066.8
2197.21
2818.88
2796.41
2187.09
2060.21
1976.21
1843.59
1779.69
1821.7
1877.57
1927.24
1961.11
1957.77
1957.75
1956.14
1957.6
1953.14
1951.84
1920.95
1875.75
1831.99
1765.52
1842.39
1974.39
2062.03
2184.62
2811.05
2757.84
2169.07
2054.44
1982.65
1858.06
1797.83
1818.51
1854.19
1895.97
1912.72
1921.53
1911.53
1916.12
1910.79
1920.57
1903.78
1883.57
1850.34
1833.06
1786.72
1858.11
1990.44
2055.44
2165.39
2776.19
2728.2
2159.41
2045.58
2042.3
1870.91
1802.91
1805.57
1837.57
1863.9
1891.56
1878.47
1878.77
1875.75
1879.03
1875.16
1883.78
1860.32
1830.13
1815.84
1799.4
1861.25
2062.78
2044.75
2148.95
2735.51
2700.23
2148.96
2021.54
2025
1894.24
1834.44
1811.19
1818.17
1835.83
1841.23
1846.13
1837.29
1841.12
1836.56
1846.53
1835.24
1823.3
1815.67
1831.29
1835.09
1898.05
2042.95
2022.53
2144.81
2713.69
2661.18
2129.8
1992.46
2031.76
1933.95
1839.74
1814.87
1806.48
1810.15
1827.01
1809.64
1809.13
1805
1809.62
1806.78
1820.96
1806.17
1791.04
1809.29
1846.35
1935.07
2039.58
1991.39
2139.88
2685.87
2645.67
2129.33
1968.08
2007.24
1996.6
1884.2
1828.97
1794.68
1787.34
1777.88
1781.21
1771.58
1774.65
1771.09
1782.18
1772.32
1778.35
1797.21
1843.67
1878.76
2009.79
2016.62
1963.31
2125.77
2657.65
2615.46
2119.53
1948.99
1993.01
1993.94
1897.02
1831.83
1799.51
1770.76
1773.77
1751.98
1748.77
1743.54
1748.46
1749.5
1770.48
1766.72
1784.31
1832.07
1925.98
2005.09
1994.9
1945.65
2126.87
2630.51
2594.12
2110.64
1933.66
1952
1985.11
1959.49
1859.27
1809.09
1769.71
1732.14
1729.15
1716.24
1718.22
1715.44
1729.7
1723.92
1758.39
1805.53
1874.57
1984.12
1990.73
1954.9
1931.71
2119.94
2609.86
2566.55
2108.71
1922.51
1931.02
1968.85
2012.81
1879.15
1814.39
1762.89
1746.55
1708.58
1699.36
1692.78
1699.11
1707.26
1745.68
1761.89
1793.63
1883.68
2030.59
1974.43
1938.28
1922.6
2102.57
2576.33
2553.04
2102.86
1917.83
1897.3
1937.19
1997.36
1938.86
1831.17
1778.47
1717.69
1697.41
1674.56
1674.07
1673.74
1695.57
1705.88
1770.95
1832.67
1957.46
2007.49
1930.44
1904.48
1919.8
2100.73
2560.29
2525.29
2084.28
1907.77
1886.72
1905.48
1984.04
2030.31
1857.56
1775.62
1747.74
1698.11
1670.73
1659.19
1669.64
1694.11
1746.26
1776.32
1842.33
2039.55
1988.37
1900.14
1895.65
1912.79
2085.54
2535.03
2513.51
2084.93
1907.47
1864.18
1875.37
1956.52
2007.38
1925.18
1809.95
1722.85
1695.83
1660.45
1653.83
1659.58
1691.64
1709.53
1803.61
1927.45
2015.27
1959.32
1869.09
1875.06
1907.5
2075.91
2519.78
2477.52
2066
1896.51
1864.47
1852.97
1914.79
1995.38
2021.28
1835.02
1765.99
1702.27
1672.02
1654.94
1671.63
1698.72
1762.51
1851.3
2019.81
2001.26
1917.45
1851.35
1878.19
1897.74
2062.69
2482.68
2442.72
2055.74
1889.26
1847.38
1835.83
1881.2
1976.68
1995.04
1932.52
1760.96
1706.32
1661.9
1657.75
1660.79
1705.58
1741.15
1947.3
1997.43
1982.51
1889.19
1836.08
1853.55
1886.04
2052.19
2452.18
2312.86
2008.95
1866.1
1843.79
1825.21
1844.36
1937.13
1987.64
2000.75
1854.08
1734.07
1683.71
1664.97
1683.41
1731.28
1849.04
2006.59
1986.09
1943.63
1854.41
1826.09
1857.47
1864.48
2003.9
2319.95
358.817
371.356
377.873
381.853
384.007
382.882
381.386
382.15
379.98
368.044
357.903
352.27
347.802
343.105
338.222
332.962
328.868
326.75
325.387
323.133
320.384
318.328
316.42
312.99
309.217
306.293
304.609
303.81
304.846
305.8
367.755
375.092
379.016
379.687
379.606
380.994
383.799
384.822
382.709
372.732
360.624
351.061
345.827
340.971
336.028
330.792
326.524
324.47
323.119
320.651
317.75
315.792
314.802
311.629
307.532
304.229
302.274
301.175
301.501
301.578
370.611
375.568
376.849
375.854
378.744
381.891
385.001
384.41
382.388
375.739
362.43
351.704
344.353
340.085
335.214
330.162
325.738
323.577
322.075
319.44
316.462
314.596
313.707
310.898
306.694
303.278
301.308
300.195
300.322
300.211
376.123
375.563
374.13
375.407
379.346
385.813
387.202
384.928
382.932
377.202
363.681
353.507
344.16
339.046
334.005
329.184
324.559
322.185
320.528
317.803
314.887
313.163
312.21
309.712
305.329
301.699
299.465
298.268
297.911
297.417
376.438
374.522
373.644
377.878
386.358
393.244
392.088
387.229
383.541
378.73
365.641
355.752
345.535
338.515
332.867
328.216
323.782
321.135
319.467
316.491
313.66
312.076
310.98
308.942
304.639
300.914
298.494
296.864
296.619
296.274
374.812
373.742
376.007
387.585
401.264
407.733
402.977
393.462
385.82
380.713
370.803
358.435
347.665
338.618
332.993
327.058
323.111
320.084
318.378
315.329
312.455
310.908
309.78
307.962
303.524
299.401
296.483
294.22
293.241
292.211
374.523
374.585
385.669
408.778
429.24
434.153
425.655
407.956
392.851
384.779
379.101
362.931
350.362
340.262
334.221
327.904
322.589
319.048
316.966
313.633
310.593
309.023
307.699
305.897
301.226
296.987
293.795
291.206
290.068
289.004
376.092
379.995
410.437
449.609
483.196
489.577
471.413
435.448
407.936
392.957
385.039
370.135
354.722
342.912
336.38
329.777
322.088
318.225
315.121
311.1
307.659
305.63
303.722
301.74
297.648
293.94
291.182
289.246
288.412
287.5
381.249
395.661
460.19
528.8
584.471
595.937
560.087
487.696
435.849
407.277
392.822
382.412
361.001
346.531
339.428
332.385
323.324
318.067
313.413
308.654
305.083
302.965
300.893
299.253
295.673
292.383
289.974
288.309
287.561
286.706
391.28
426.573
554.895
686.797
791.146
796.722
731.797
586.164
486.336
432.542
405.587
391.631
367.498
351.433
343.22
335.552
325.803
318.425
312.231
306.868
303.341
301.152
299.006
297.415
294.3
291.407
289.266
287.706
286.848
285.826
406.888
482.337
731.612
992.566
1151.24
1128.05
1036.35
767.853
574.897
474.77
425.512
401.645
376.692
357.855
348.815
339.54
328.821
319.277
311.877
305.854
302.271
300.04
297.757
296.058
293.303
290.786
288.88
287.395
286.497
285.417
430.852
578.405
1044.1
1374.42
1348.62
1278.28
1222.85
1049.05
720.151
541.393
456.025
415.818
389.44
366.404
354.015
344.51
332.566
321.55
312.189
305.583
301.798
299.463
296.956
295.104
292.616
290.489
288.733
287.287
286.367
285.183
467.004
739.489
1412.57
1465.74
1361.67
1274.77
1233.05
1176.21
918.427
637.912
499.292
434.935
402.324
374.645
359.582
350.301
337.465
324.414
312.976
305.847
301.749
299.285
296.54
294.555
292.259
290.417
288.774
287.346
286.382
285.104
518.06
985.361
1527.96
1458.35
1292.59
1188.48
1170.01
1172.44
1068.3
758.858
555.515
458.946
415.595
383.116
365.633
356.742
343.436
327.707
314.611
306.578
302.063
299.358
296.441
294.375
292.18
290.536
288.908
287.441
286.346
284.858
590.516
1269.65
1541.99
1399.76
1188.25
1066.91
1053.54
1107.32
1098.05
885.246
617.643
485.127
429.55
391.792
372.146
365.091
350.416
331.9
316.909
307.756
302.745
299.7
296.556
294.408
292.277
290.683
288.962
287.413
286.149
284.559
684.522
1447.86
1542.06
1359.85
1142.08
982.734
939.176
1013.22
1075.42
958.048
672.707
511.177
443.914
401.061
379.496
371.644
358.576
337.232
319.676
309.173
303.549
300.207
296.911
294.631
292.543
290.782
288.829
287.122
285.61
283.857
789.385
1521.71
1541.85
1351.87
1123.5
943.059
876.189
932.522
1031.29
966.398
707.033
532.686
456.584
410.139
387.452
376.758
370.326
344.204
323.043
310.944
304.366
300.681
297.366
294.784
292.761
290.731
288.503
286.651
284.886
282.987
894.484
1559.32
1546.37
1351.41
1105.52
904.572
840.232
865.415
974.121
937.576
713.433
546.369
465.848
418.941
395.263
381.535
384.816
353.918
327.708
313.245
305.513
301.242
297.79
295.045
292.86
290.59
288.158
286.219
284.257
282.341
987.511
1585.18
1563.04
1364.76
1097.48
878.918
806.012
811.102
906.653
888.66
704.306
551.918
471.22
427.317
402.552
386.604
390.754
371.208
334.76
316.479
306.89
301.855
298.033
295.447
292.861
290.478
287.832
285.876
283.765
281.799
1072.64
1612.18
1590.58
1391.28
1104.13
870.374
775.023
768.66
830.856
833.575
679.499
551.314
477.328
435.726
408.696
392.12
394.421
391.849
346.65
321.531
308.927
302.548
298.166
295.821
292.679
290.254
287.387
285.477
283.236
281.298
1154.19
1640.36
1616.15
1416.85
1125.12
877.673
761.551
731.527
767.54
777.264
654.403
548.335
481.573
441.778
413.557
398.553
395.537
397.699
371.168
330.084
311.746
303.605
298.39
296.011
292.428
289.876
286.907
284.999
282.667
280.744
1207.45
1668.94
1641.31
1447.11
1163.41
913.588
759.336
709.017
716.354
722.306
634.414
543.532
482.338
444.068
418.56
405.073
399.977
400.481
392.803
344.521
317.736
305.539
298.131
295.842
292.199
289.552
286.569
284.572
282.313
280.456
1357.76
1700.43
1664.16
1493.94
1220.77
959.623
778.434
699.685
675.978
674.998
617.384
533.822
482.286
447.116
425.419
411.239
405.339
399.135
397.735
373.718
327.258
308.796
299.505
295.223
292.084
289.477
286.5
284.411
282.219
280.431
1377.76
1720.89
1699.04
1560.14
1302.68
1033.37
820.839
704.678
658.799
639.363
597.421
529.708
484.756
456.369
434.869
418.589
410.76
401.095
400.647
393.693
342.855
314.873
301.822
295.82
291.888
289.564
286.602
284.432
282.31
280.591
1411.63
1754.67
1736.99
1621.19
1390.31
1119.37
891.504
735.155
658.001
628.478
590.888
531.715
491.02
468.994
449.091
428.645
416.297
405.561
400.914
398.678
373.071
324.809
306.067
297.421
291.957
289.658
286.861
284.638
282.543
280.874
306.384
305.41
304.386
305.198
306.864
309.737
313.297
316.402
318.347
320.501
323.188
325.316
326.754
328.963
333.113
338.371
343.208
347.972
352.241
358.713
369.692
380.833
381.947
380.95
381.92
382.916
380.755
377.363
371.486
359.668
302.204
302.117
301.791
302.879
304.816
308.02
311.801
314.607
315.747
317.845
320.66
322.982
324.417
326.58
330.931
336.144
341.04
345.953
351.858
362.047
375.978
383.327
384.708
383.507
380.789
379.077
379.153
378.361
374.512
367.946
300.829
300.942
300.813
301.907
303.867
307.164
310.989
313.495
314.525
316.596
319.471
321.931
323.5
325.786
330.313
335.34
340.182
344.596
352.773
363.685
376.744
382.826
384.522
385.109
381.806
377.939
375.404
376.03
374.901
370.317
298.025
298.52
298.836
300.025
302.24
305.738
309.686
311.911
313.023
314.965
317.879
320.37
322.056
324.582
329.295
334.139
339.214
344.812
354.71
364.964
378.012
383.041
385.137
387.495
386.107
378.947
374.897
373.572
374.666
375.114
296.821
297.159
297.408
299.042
301.381
304.958
308.818
310.592
311.811
313.671
316.697
319.379
321.03
323.848
328.224
333.081
338.716
346.473
357.119
367.294
379.292
383.55
387.653
392.868
394.185
387.401
378.156
373.305
373.64
375.169
292.787
293.826
294.798
297.014
299.863
303.781
307.744
309.327
310.615
312.457
315.539
318.326
320.011
323.213
327.277
333.229
339.103
348.717
359.91
374.855
381.121
386.345
395.194
405.511
410.585
403.669
388.928
376.239
373.076
374.106
289.643
290.704
291.79
294.343
297.451
301.527
305.657
307.237
308.69
310.477
313.684
316.858
318.982
322.664
328.235
334.471
340.871
351.62
364.838
379.998
385.63
394.608
411.465
430.955
440.122
434.191
411.648
387.178
374.295
374.141
288.112
289.035
289.852
291.745
294.389
297.854
301.579
303.464
305.411
307.559
311.144
315.004
318.195
322.181
330.143
336.696
343.66
356.413
373.984
385.593
394.516
411.666
442.338
481.943
501.162
492.339
456.005
414.252
380.608
375.776
287.288
288.142
288.852
290.478
292.782
295.838
299.005
300.686
302.806
305.032
308.738
313.346
318.056
323.66
332.746
339.795
347.44
362.667
384.708
394.238
410.643
443.096
501.304
580.35
617.527
603.421
542.3
468.538
397.944
381.475
286.328
287.371
288.178
289.689
291.729
294.378
297.149
298.841
301.038
303.346
306.972
312.267
318.313
326.232
335.926
343.976
352.691
369.962
392.897
408.168
438.75
500.046
612.567
770.225
838.787
827.744
711.936
570.786
431.583
392.442
285.862
286.937
287.785
289.212
291.012
293.305
295.797
297.602
299.934
302.324
305.97
311.99
319.439
329.291
339.951
349.171
359.64
380.203
403.451
430.334
485.762
599.343
819.046
1088.62
1170.58
1198.11
1038.13
759.444
491.566
408.964
285.55
286.743
287.631
289.009
290.631
292.569
294.864
296.807
299.356
301.878
305.698
312.362
321.881
333.161
344.951
354.241
368.098
393.36
418.788
464.229
559.959
759.908
1096.69
1234.29
1287.03
1359.8
1398.18
1085
594.485
435.155
285.422
286.71
287.631
288.987
290.513
292.182
294.349
296.402
299.179
301.829
305.974
313.179
324.824
338.137
350.721
359.73
376.193
405.884
439.636
512.356
666.524
969.223
1189.98
1232.53
1273.62
1364.19
1472
1433.1
764.717
472.753
285.096
286.607
287.676
289.075
290.586
292.087
294.193
296.302
299.245
302.105
306.738
314.943
328.304
344.115
357.196
365.804
384.759
419.289
465.395
574.667
798.506
1094.45
1170.96
1159.37
1180.22
1290.89
1461.28
1533.82
1020.56
526.146
284.697
286.33
287.593
289.088
290.705
292.168
294.227
296.415
299.586
302.753
307.996
317.334
332.74
351.06
365.089
372.389
393.985
433.822
493.683
641.891
928.119
1108.41
1097.15
1042.13
1062.86
1194.35
1404.18
1547.52
1299.53
601.182
283.927
285.722
287.255
288.913
290.772
292.387
294.426
296.774
300.062
303.533
309.38
320.214
338.323
359.083
370.894
379.727
403.287
448.528
521.039
700.936
986.352
1080.05
1001.36
933.571
985.523
1153.91
1371.78
1548.99
1462.38
697.475
283.004
284.943
286.744
288.556
290.716
292.598
294.597
297.191
300.523
304.369
311.185
323.717
345.491
371.26
375.971
387.543
412.215
461.424
542.801
734.344
986.094
1029.15
919.756
875.611
948.233
1136.18
1365.82
1551.11
1530.06
801.619
282.323
284.292
286.274
288.185
290.553
292.695
294.842
297.589
301.114
305.574
313.521
328.516
355.377
383.442
381.061
395.056
420.604
470.798
554.64
736.711
951.927
970.062
855.555
840.3
909.765
1117.44
1366.23
1558.47
1566.39
905.468
281.815
283.792
285.927
287.879
290.427
292.717
295.211
297.826
301.778
307.058
316.854
335.836
373.376
388.7
386.313
401.989
428.336
475.53
559.278
720.998
898.069
899.8
805.52
804.198
884.668
1109.91
1380.96
1576.93
1592.33
994.512
281.31
283.254
285.526
287.473
290.24
292.603
295.644
297.989
302.457
309.157
322.153
348.063
391.017
391.96
392.082
408.082
436.082
480.913
558.784
692.359
841.994
826.056
764.216
775.856
877.265
1117.7
1407.98
1604.36
1619.95
1077.48
280.697
282.629
285.007
286.965
289.919
292.422
295.875
298.206
303.637
312.093
330.991
373.167
396.264
393.454
398.18
413.166
441.523
484.095
555.3
665.619
782.812
765.29
729.826
764.585
887.845
1140.11
1432.01
1629.22
1648.2
1160.68
280.365
282.235
284.536
286.577
289.55
292.217
295.782
298.014
305.657
318.289
345.75
391.609
398.507
398.214
404.151
418.37
443.868
483.933
549.987
643.514
725.744
714.028
710.416
764.166
925.653
1178.18
1462.28
1654.56
1676.87
1211.21
280.305
282.122
284.353
286.472
289.417
292.087
295.159
299.458
309.142
328.145
375.568
396.263
396.952
403.85
409.979
425.138
447.263
484.267
538.975
623.645
676.179
676.155
701.717
786.473
972.309
1234.56
1506.8
1676.88
1707.59
1356.32
280.489
282.221
284.375
286.557
289.434
291.85
295.77
301.854
315.41
344.127
392.415
398.708
399.498
409.211
417.579
434.191
457.306
486.427
534.439
601.337
640.193
660.565
708.939
829.89
1044.73
1316.27
1571.05
1709.22
1726.77
1377.4
280.819
282.499
284.617
286.852
289.438
292.119
297.433
306.205
325.735
375.23
396.948
398.876
404.167
414.72
428.451
448.99
468.981
492.978
535.827
593.688
629.209
660.367
741.557
902.725
1132.99
1406.39
1632.17
1745.4
1757.56
1412.01
850.94
855.941
855.962
856.869
857.467
857.058
856.086
853.645
851.268
847.941
844.362
839.265
834.602
827.793
819.08
810.09
798.209
788.96
777.656
765.925
753.954
741.362
730.555
719.728
709.484
699.677
690.93
682.293
673.449
665.402
658.493
651.909
645.722
639.825
633.712
627.865
622.307
617.257
612.004
606.22
600.21
595.079
591.486
587.082
582.598
578.322
574.4
570.825
567.554
565.516
563.754
562.499
562.226
563.453
565.482
568.878
574.013
581.152
596.959
619.62
639.018
651.73
659.797
665.785
670.485
674.337
676.326
676.001
674.025
672.391
670.276
666.879
662.833
657.575
651.052
643.865
637.564
632.363
628.039
623.07
616.762
609.31
601.145
592.545
583.928
575.674
568.133
561.691
556.627
552.623
548.973
545.35
541.59
537.62
533.237
528.294
522.613
516.04
508.419
500.423
492.313
483.043
471.703
457.103
438.984
418.664
394.614
367.391
341.184
325.622
315.212
308.093
302.986
298.96
295.707
292.77
290.687
288.682
286.684
285.111
284.052
283.05
282.161
281.683
281.251
849.076
855.12
854.827
856.818
857.612
857.768
857.567
856.613
855.165
852.668
849.743
846.069
841.205
835.658
828.585
822.11
814.024
806.892
799.275
790.491
782.805
774.821
768.915
763.226
758.903
755.621
753.392
751.374
749.201
747.376
746.841
747.157
748.954
749.608
748.709
745.944
741.584
736.675
731.211
724.517
717.22
708.244
699.906
691.477
683.558
675.173
666.097
656.027
645.427
634.209
623.488
614.489
608.781
606.734
608.684
613.424
622.718
632.061
640.33
643.413
644.207
644.874
647.198
650.441
653.848
656.816
658.591
660.101
661.345
662.704
664.256
665.939
667.145
667.447
666.324
664.225
660.997
656.321
649.263
642.971
636.821
630.17
623.263
616.278
609.34
602.65
596.308
590.203
583.866
577.046
569.777
561.987
553.56
544.423
534.614
524.214
513.443
502.672
492.06
480.991
469.521
458.137
446.767
435.029
423.069
411.412
401.592
392.853
381.843
361.063
336.417
318.559
308.896
302.468
298.027
294.454
292.025
290.057
288.081
286.438
285.326
284.433
283.692
283.284
282.893
869.292
875.01
874.031
875.32
875.447
875.431
875.476
874.958
874.391
873.088
870.811
867.955
864.494
861.236
856.893
854.829
852.721
852.118
852.34
854.44
857.413
859.991
864.678
871.301
882.128
897.759
918.456
940.745
960.18
976.197
991.471
1007.84
1025.58
1040.67
1051.38
1055.68
1057.49
1053.56
1046.14
1036.95
1025.53
1009.68
991.746
971.763
952.476
934.13
912.301
887.938
861.364
832.509
801.66
772.911
748.351
734.556
733.332
722.175
705.867
690.894
678.791
669.625
663.719
660.2
657.949
657.352
657.007
656.289
655.402
653.993
653.028
652.213
652.472
652.701
653.44
654.137
653.958
653.169
650.622
644.782
639.212
633.126
626.664
620.027
613.097
606.315
599.512
592.491
584.808
576.876
568.744
559.991
551.227
542.509
533.77
524.943
515.941
506.796
497.515
488.32
479.494
470.643
461.647
452.175
442.505
432.735
423.484
414.507
407.01
400.311
393.523
387.201
379.27
365.304
335.771
317.319
307.204
300.559
296.365
293.862
291.626
289.631
287.802
286.429
285.758
285.325
284.967
884.131
891.467
892.494
896.854
897.981
899.449
901.219
901.669
902.983
903.597
905.123
905.872
908.436
913.771
918.492
931.217
943.046
961.551
984.045
1009.18
1040.74
1073.46
1108.29
1142.21
1177.86
1216.81
1261.49
1310.26
1355.69
1389.85
1410.84
1426.26
1442.98
1453.75
1459.02
1460.9
1459.84
1455.36
1446.82
1434.91
1421.83
1406.81
1390.42
1373.08
1356.3
1341.47
1324.34
1304.08
1283.44
1257.69
1226.28
1191.06
1142.96
1094.54
1027.55
948.806
873.705
807.555
756.803
723.458
702.185
690.804
682.789
677.583
673.42
671.109
668.909
666.438
663.249
660.58
658.786
657.22
657.199
656.946
655.774
652.161
646.07
640.202
634.445
628.249
621.647
614.115
606.465
598.73
590.881
583.136
575.347
566.833
558.269
549.798
541.242
532.974
524.875
516.873
508.97
501.362
493.922
486.262
478.842
472
464.772
457.524
448.948
439.96
431.19
423.506
416.751
410.62
404.948
399.309
393.652
387.268
378.795
365.088
335.552
317.168
306.923
301.222
297.524
294.665
292.432
290.47
288.795
287.53
287.275
903.963
918.665
922.202
928.458
930.542
935.241
941.165
944.207
951.535
957.524
969.111
981.87
1001.76
1029.98
1062.38
1111.51
1160.86
1224.46
1291.35
1360.67
1430.8
1494.86
1550.42
1593
1625.5
1647.52
1662.35
1671.21
1684.01
1691.52
1691.56
1689.61
1685.55
1680.48
1674.67
1668.51
1662.38
1655.99
1649.12
1641.89
1635.07
1628.37
1622.31
1618.72
1614.18
1609.23
1603.88
1596.58
1587.71
1583.5
1581.43
1582.91
1594.4
1580.44
1532.54
1418.52
1250.69
1073.93
930.752
836.42
780.107
747.575
724.385
707.595
697.176
691.802
687.87
685.847
683.551
681.212
679.812
679.991
680.383
679.728
676.685
670.114
662.397
654.804
647.558
640.212
631.818
622.675
613.696
604.495
595.409
586.616
578.004
569.379
560.351
551.502
542.502
533.778
525.312
517.08
509.07
501.37
494.113
487.344
480.565
474.171
468.161
461.487
455.15
448.303
441.088
433.704
426.488
419.491
412.949
406.973
401.51
396.337
391.195
385.808
378.841
367.261
336.225
318.206
308.617
302.624
298.284
294.962
292.53
290.521
289.393
935.052
956.791
962.29
972.876
977.591
988.567
998.533
1009.31
1028.43
1049.63
1084.62
1132.04
1194.12
1276.36
1367.1
1485.09
1595.14
1695.51
1771.6
1819.28
1845.63
1854.48
1854.03
1848.94
1840.72
1830.69
1822.65
1812.23
1801.67
1792.1
1781.74
1770.95
1761.06
1751.7
1742.72
1734.67
1727.93
1722.66
1718.59
1715.48
1713.66
1713.86
1717.49
1720.2
1722.58
1726.03
1728.77
1732.17
1734.83
1743.94
1761.91
1790.1
1806.9
1801.39
1782.93
1746.26
1679.66
1513.45
1275.4
1073.08
944.182
864.64
808.387
770.061
746.036
733.116
727.846
726.359
724.403
723.901
725.812
730.548
732.676
732.211
727.297
717.213
705.946
694.362
683.178
671.572
658.952
645.906
633.34
620.987
609.58
599.15
589.568
580.346
570.669
560.954
551.258
541.602
532.412
523.763
515.655
507.919
500.471
493.657
487.367
480.693
474.183
468.455
463.063
457.619
451.389
444.534
437.376
430.122
423.015
416.15
409.715
404.16
399.35
395.004
390.218
385.161
380.144
370.912
338.499
319.196
308.738
302.657
298.591
295.991
293.641
968.838
1001.64
1012.01
1036.63
1050.66
1079.95
1100.86
1137.06
1186.36
1253.69
1341.09
1457.34
1594.6
1741.54
1861.55
1948.72
1987.25
1996.07
1990.17
1976.08
1959.11
1939.68
1918.89
1902.15
1889.02
1874.68
1860.37
1846.8
1833.42
1821.6
1811.2
1802.04
1794.32
1787.7
1781.54
1776.32
1772.29
1769.83
1768.87
1769.65
1773.12
1778.9
1785.96
1791.84
1798.11
1805.03
1810.2
1816.51
1825.96
1841.2
1861.11
1883.59
1898.84
1900.94
1895.79
1882.69
1858.2
1803.59
1666.81
1440.21
1232.63
1080.73
965.528
886.33
839.051
813.099
801.678
798.447
799.764
803.8
812.947
822.716
826.94
827.037
821.655
808.168
790.97
772.578
754.008
734.59
714.111
692.656
671.673
652.104
635.005
620.738
608.478
597.467
586.846
576.298
566
555.696
545.75
536.31
527.438
519.047
510.914
503.348
496.546
490.148
483.837
477.602
471.465
465.949
460.787
455.214
448.876
441.994
434.776
427.472
420.3
413.605
407.555
402.973
398.715
394.185
390.03
386.021
381.981
372.909
338.504
320.175
310.003
303.864
299.925
1007.69
1062.55
1082.93
1134.38
1166.58
1233.99
1292.54
1390.6
1502.78
1653.23
1809.5
1972
2066.39
2104.57
2108.2
2095.06
2074.23
2052.62
2031.85
2011.12
1989.14
1964.69
1946.94
1930.24
1914.63
1900.52
1888.04
1877.25
1867.29
1858.67
1852.28
1848.03
1844.81
1843.04
1842.53
1842.69
1843.4
1845.34
1848.93
1853.94
1861.76
1869.28
1877.09
1886.54
1894.51
1901
1909.39
1917.49
1924.47
1938.17
1950.15
1960.62
1968.05
1969.79
1968.66
1965.26
1956.02
1934.53
1879.76
1735.17
1536.21
1360.31
1199.88
1075.97
993.431
943.382
917.467
911.971