/*--------------------------------*- C++ -*----------------------------------*\
| =========                 |                                                 |
| \\      /  F ield         | OpenFOAM: The Open Source CFD Toolbox           |
|  \\    /   O peration     | Version:  2112                                  |
|   \\  /    A nd           | Website:  www.openfoam.com                      |
|    \\/     M anipulation  |                                                 |
\*---------------------------------------------------------------------------*/
FoamFile
{
    version     2.0;
    format      ascii;
    arch        "LSB;label=32;scalar=64";
    class       volScalarField;
    location    "0.00397";
    object      nut;
}
// * * * * * * * * * * * * * * * * * * * * * * * * * * * * * * * * * * * * * //

dimensions      [0 2 -1 0 0 0 0];

internalField   nonuniform List<scalar> 
13875
(
0.051167
0.0366263
0.0343731
0.0343258
0.0342627
0.0343283
0.0343278
0.0343137
0.0342831
0.0342739
0.0342789
0.0342894
0.0343288
0.0343465
0.0343343
0.0342848
0.0342496
0.0342801
0.0343176
0.0343452
0.0342794
0.0343311
0.0343836
0.0365737
0.0514275
0.0532619
0.0341209
0.0322296
0.0321023
0.0320221
0.0320647
0.0320559
0.0320449
0.0320143
0.0320195
0.0320296
0.0320387
0.0320612
0.032079
0.0320646
0.032037
0.0319798
0.0320278
0.0320561
0.0320856
0.0320358
0.032097
0.0322294
0.0340584
0.0536361
0.0564574
0.033563
0.0318097
0.0315858
0.0315137
0.0315531
0.031538
0.0315159
0.0314589
0.0314471
0.0314515
0.0314657
0.0315397
0.0315645
0.0315401
0.0314641
0.031392
0.0314615
0.0315361
0.03158
0.0315324
0.0315722
0.0317949
0.0334961
0.0565924
0.0590717
0.0332341
0.0314959
0.0312689
0.0312074
0.0312416
0.0312224
0.0311985
0.0311389
0.0311128
0.0311094
0.0311287
0.0312226
0.0312486
0.0312239
0.0311255
0.0310672
0.0311298
0.0312197
0.0312669
0.0312247
0.0312544
0.0314849
0.0331692
0.0591426
0.0611276
0.0330053
0.0312523
0.0309943
0.030931
0.0309595
0.0309381
0.0309121
0.0308552
0.0308246
0.030819
0.0308381
0.0309365
0.0309633
0.0309379
0.030836
0.0307826
0.03084
0.0309332
0.0309845
0.0309476
0.0309815
0.0312302
0.032919
0.0612565
0.062821
0.0328496
0.0310948
0.0307622
0.0306983
0.0307152
0.030688
0.0306563
0.0305996
0.0305647
0.0305557
0.0305757
0.0306792
0.0307076
0.0306813
0.0305733
0.0305271
0.0305792
0.0306803
0.030742
0.030716
0.0307539
0.0310583
0.0328229
0.0629751
0.0648301
0.0330744
0.0311093
0.0306239
0.0305171
0.0305117
0.0304712
0.0304328
0.0303734
0.0303349
0.0303233
0.0303443
0.0304537
0.030483
0.0304532
0.0303392
0.0303038
0.0303531
0.0304642
0.0305375
0.0305369
0.0306274
0.0311141
0.0330725
0.0648731
0.067101
0.0339407
0.0314322
0.0306458
0.0304421
0.0303802
0.0303094
0.0302537
0.0301839
0.0301422
0.0301297
0.0301476
0.0302658
0.0302991
0.0302662
0.0301418
0.0301199
0.0301681
0.0302969
0.0304015
0.0304543
0.0306348
0.031392
0.0338951
0.0673678
0.0736559
0.0362994
0.0320525
0.0308525
0.0304553
0.0303269
0.0302165
0.0301354
0.0300496
0.0300057
0.0299949
0.0300084
0.0301365
0.0301756
0.0301398
0.0300059
0.0299943
0.0300446
0.0301925
0.0303421
0.0304691
0.0308139
0.0319445
0.0360103
0.0742099
0.0829083
0.0384952
0.0327542
0.0311825
0.0306413
0.0303846
0.0302267
0.0301146
0.0300203
0.029978
0.0299678
0.0299793
0.0301129
0.0301582
0.0301224
0.029995
0.0299796
0.0300299
0.0301794
0.0303834
0.0306383
0.0311446
0.0326464
0.0381187
0.0835118
0.0907513
0.044191
0.0347228
0.032128
0.0310557
0.0306492
0.0304229
0.0302737
0.0301722
0.0301297
0.030118
0.0301275
0.0302616
0.0303115
0.0302823
0.0301792
0.0301544
0.0302036
0.0303587
0.0306075
0.0310352
0.0320536
0.0344917
0.0433627
0.0894108
0.0949728
0.0548791
0.0407915
0.0338017
0.0323463
0.0314469
0.0310087
0.0307946
0.0306668
0.0306161
0.0306017
0.0306124
0.0307333
0.0307883
0.0307713
0.0307048
0.0306858
0.0307559
0.0309488
0.0314038
0.032245
0.0335538
0.0402252
0.0536858
0.0942423
0.0866419
0.067615
0.0539697
0.042808
0.035404
0.033104
0.0324842
0.0322254
0.0320779
0.0320113
0.0319965
0.0320124
0.0321138
0.0321672
0.0321713
0.0321446
0.0321565
0.0322644
0.0325086
0.0331267
0.0358035
0.0426406
0.0525882
0.0671696
0.0866225
0.0796266
0.065538
0.0596426
0.070035
0.0453104
0.0403252
0.0374637
0.0360834
0.0355677
0.0353904
0.0353269
0.0353431
0.0354233
0.0354898
0.0355181
0.0355632
0.0357118
0.03622
0.0376705
0.0410446
0.0468809
0.0690233
0.0588001
0.065588
0.0817633
0.0756738
0.0647687
0.0583751
0.0648071
0.057669
0.0556328
0.053304
0.04838
0.0474022
0.0471309
0.0470432
0.0470382
0.0471124
0.0472132
0.0472542
0.047291
0.0474856
0.0483704
0.0534859
0.056898
0.0576742
0.0647677
0.057782
0.0644519
0.0751891
0.0682977
0.063575
0.0588484
0.0653858
0.0646458
0.069421
0.0667888
0.0652887
0.0684998
0.0709501
0.0717943
0.0718576
0.0721069
0.0724709
0.0720873
0.0713875
0.068353
0.0649663
0.065578
0.0703209
0.0650031
0.0658081
0.0582112
0.0628209
0.0676639
0.0654186
0.0640955
0.0618715
0.0675994
0.0676184
0.0739221
0.0704445
0.0667181
0.0657312
0.0661201
0.066831
0.0668516
0.0671188
0.0673729
0.067222
0.0665356
0.0659513
0.066785
0.0685195
0.0745427
0.0688146
0.0686386
0.0613057
0.062941
0.0652311
0.0612417
0.065487
0.0668562
0.066997
0.0654097
0.0727467
0.0695954
0.0660787
0.0647471
0.0643063
0.0645305
0.0642772
0.0645422
0.0647878
0.0648852
0.0644855
0.0649799
0.0663649
0.0680269
0.0715688
0.0662045
0.0687459
0.0676413
0.064914
0.0607997
0.0545463
0.0669051
0.0693507
0.0666572
0.0633575
0.0671277
0.0676379
0.0666113
0.0653435
0.0637633
0.0627621
0.0620338
0.0621198
0.0624138
0.0629483
0.0635911
0.0652133
0.0664823
0.0664316
0.0665312
0.0638812
0.0679403
0.0703277
0.0676545
0.0551886
0.0517
0.0707913
0.0690895
0.0650794
0.0616059
0.0634204
0.0654252
0.0662073
0.0656014
0.0633974
0.0613163
0.0600077
0.059885
0.060383
0.0615125
0.063259
0.0654306
0.0659121
0.0646064
0.0633004
0.0625119
0.0663328
0.0697117
0.0709342
0.0511175
0.0623119
0.0683308
0.0654188
0.0622646
0.0594813
0.0608693
0.0632505
0.0648686
0.0647558
0.0623669
0.0596512
0.0578577
0.0575851
0.0583146
0.0599877
0.0624051
0.0645992
0.0644877
0.0626924
0.0611322
0.0606328
0.0636235
0.0662376
0.0682043
0.060999
0.0816861
0.0737649
0.0630525
0.0599222
0.0575709
0.0589293
0.0611547
0.0631182
0.063347
0.0608802
0.0577734
0.0556624
0.0552414
0.0561209
0.058128
0.0609346
0.0631232
0.0626542
0.060709
0.0594221
0.0587822
0.0612502
0.0639084
0.075351
0.082281
0.0955869
0.079493
0.0614762
0.0575207
0.05576
0.057046
0.0590691
0.0612182
0.0616044
0.0591107
0.0557834
0.0534724
0.0529329
0.0538407
0.0560157
0.0590707
0.0613125
0.0607003
0.0585422
0.0574934
0.0569001
0.0586832
0.0620962
0.0810259
0.0972893
0.10531
0.0810601
0.0594991
0.0554894
0.0540196
0.0549747
0.0570149
0.0593083
0.0596935
0.0570348
0.053609
0.0512787
0.0507305
0.0516699
0.0538986
0.057058
0.059413
0.0587931
0.0564465
0.0553285
0.0551276
0.056728
0.0603615
0.0821762
0.10572
0.111261
0.0816157
0.0581668
0.0540148
0.0524878
0.0531412
0.0551756
0.0573956
0.0577103
0.0550175
0.0515452
0.0492234
0.0486892
0.0496093
0.0518449
0.0551016
0.0574809
0.0568891
0.0545991
0.0533624
0.0534357
0.0551662
0.0591342
0.0831817
0.112041
0.1179
0.0829674
0.0573913
0.0530121
0.0511985
0.0516338
0.0535334
0.0555135
0.0556987
0.0530294
0.0496201
0.0473359
0.0467988
0.0476844
0.0498475
0.0530435
0.0554006
0.0549707
0.0529486
0.0517085
0.0518892
0.0539629
0.0582149
0.0836677
0.119734
0.124902
0.0831532
0.0568376
0.0521436
0.0501689
0.0503619
0.0520051
0.0536353
0.0536082
0.0510038
0.0477353
0.0455835
0.0450793
0.0459414
0.0480409
0.0511665
0.0534957
0.0532271
0.0514699
0.0503645
0.050729
0.0530514
0.0578172
0.0846228
0.125883
0.13077
0.0834875
0.0566727
0.0513833
0.0494452
0.0493646
0.050639
0.0519041
0.0516745
0.0491421
0.0460492
0.0440108
0.0435121
0.0443413
0.0463336
0.0492824
0.0515587
0.0515344
0.0501431
0.0492988
0.0498653
0.0521545
0.0575626
0.0851107
0.133918
0.138468
0.0840907
0.0564947
0.0507083
0.0488147
0.0485575
0.0494173
0.0503169
0.0498858
0.0474333
0.0445073
0.0425757
0.042085
0.0428671
0.0447153
0.0474756
0.0497104
0.0499525
0.0489332
0.0484114
0.0490934
0.0513463
0.057318
0.085531
0.141784
0.145701
0.0847089
0.0563877
0.0500312
0.0481579
0.0478286
0.0482888
0.0487613
0.0480561
0.0456957
0.0430222
0.0412533
0.0407885
0.0415647
0.0433223
0.0458992
0.0480683
0.0485602
0.0479133
0.047683
0.0483968
0.0506931
0.057454
0.0872899
0.146977
0.148932
0.0854549
0.0566643
0.0496125
0.0475494
0.047103
0.0472714
0.0474137
0.0464971
0.0442078
0.041713
0.0400559
0.0396067
0.0403545
0.0419749
0.044369
0.0464988
0.0472542
0.0469588
0.0469494
0.047726
0.050206
0.0576013
0.0876981
0.151672
0.152471
0.0867734
0.0571404
0.0495637
0.0469663
0.0463982
0.0463542
0.0461766
0.0450779
0.0428503
0.0405394
0.038979
0.0385355
0.039257
0.0407667
0.0429698
0.0450443
0.0460386
0.0460713
0.0462428
0.0471025
0.0500633
0.0579941
0.0879644
0.154744
0.156289
0.0869119
0.0579191
0.0496718
0.0464922
0.0456712
0.0454333
0.0449825
0.043731
0.041572
0.0394228
0.0379793
0.0375572
0.0382694
0.0396908
0.0417694
0.0438131
0.0449456
0.0452291
0.0455362
0.0465971
0.050143
0.0587489
0.088804
0.157951
0.15879
0.0874243
0.0589806
0.0501432
0.0461844
0.0450297
0.0445633
0.0439199
0.0425429
0.0404487
0.0384554
0.0370903
0.0366724
0.0373596
0.038699
0.0406205
0.0426058
0.0438996
0.0444136
0.044921
0.0462652
0.0505045
0.059823
0.0889485
0.161261
0.161338
0.0886536
0.0594711
0.0508106
0.0461413
0.0444433
0.043722
0.0429316
0.0414989
0.039473
0.0375717
0.0362792
0.0358673
0.0365299
0.0377928
0.0396245
0.0415473
0.0429232
0.0436012
0.0443492
0.0462302
0.0511933
0.0605617
0.0892832
0.163528
0.16418
0.0886206
0.0593542
0.0515235
0.0463468
0.0439929
0.0429485
0.0419749
0.0404739
0.0385193
0.0367566
0.0355405
0.0351411
0.0357971
0.0370136
0.0387314
0.0405958
0.0420429
0.0428877
0.0439296
0.0464591
0.052129
0.0607379
0.0903173
0.165908
0.165883
0.0890944
0.0593401
0.0527908
0.0467896
0.0437465
0.0422767
0.0411129
0.0395844
0.037713
0.0360295
0.0348636
0.0344735
0.0351126
0.0362669
0.0379084
0.03969
0.0411832
0.042234
0.043694
0.046901
0.0534519
0.0604832
0.0901637
0.168136
0.167907
0.0895712
0.0593454
0.053809
0.0476008
0.0437135
0.0417972
0.0403739
0.0387735
0.0369506
0.0353699
0.0342509
0.033868
0.0344972
0.0355941
0.0371281
0.0388659
0.0404316
0.0417609
0.0436927
0.0478379
0.054476
0.0601699
0.0902793
0.169767
0.169926
0.0895154
0.0586949
0.0538657
0.0485164
0.0438719
0.0414941
0.0397125
0.0380158
0.0362458
0.0347405
0.0336733
0.033308
0.0339303
0.0349833
0.0364656
0.0381544
0.0397992
0.0414781
0.043904
0.0489454
0.0547725
0.0596293
0.0907691
0.171609
0.171151
0.0900491
0.0579554
0.0538396
0.0501702
0.0443603
0.0413883
0.0392392
0.0373763
0.0356182
0.0341831
0.0331599
0.032795
0.0334005
0.0344068
0.0358177
0.0375058
0.039326
0.0413727
0.0444004
0.0506673
0.0546372
0.0586997
0.0909528
0.173286
0.172462
0.0912216
0.0575229
0.0535458
0.0513127
0.0451901
0.041442
0.0389884
0.0368774
0.0350844
0.0336747
0.0326785
0.0323207
0.032903
0.0338802
0.0352632
0.0369908
0.0390422
0.0414296
0.0453488
0.051897
0.0542583
0.0579455
0.0917096
0.174233
0.173703
0.0919642
0.0569052
0.0529014
0.0513912
0.0464551
0.0416704
0.0388446
0.0365194
0.0346267
0.0332071
0.032238
0.0318849
0.0324667
0.0334203
0.0348186
0.0366366
0.0389222
0.0417915
0.0469187
0.0519188
0.053665
0.0578799
0.0933678
0.17535
0.174264
0.0931358
0.0567205
0.0522113
0.051056
0.0481907
0.0424086
0.0388509
0.0363688
0.0342833
0.0328123
0.0318333
0.0314789
0.0320543
0.0330081
0.0344505
0.0364585
0.0388815
0.0425978
0.0487017
0.0514941
0.0528866
0.0574248
0.0940342
0.176297
0.174909
0.0949886
0.0572239
0.0517014
0.0505095
0.0489772
0.043871
0.0390735
0.0362823
0.0340886
0.0325243
0.031494
0.0311189
0.0317053
0.0327056
0.0342433
0.0363714
0.0391225
0.044318
0.0496013
0.0508269
0.0522827
0.0574491
0.0950704
0.17687
0.175816
0.0957014
0.057192
0.0511816
0.0498039
0.0487227
0.0460573
0.0397578
0.0363091
0.0340451
0.0323846
0.0312452
0.0308333
0.0314575
0.0325516
0.0342055
0.0364572
0.0400427
0.0464741
0.0492629
0.0500857
0.0518629
0.0580772
0.0965881
0.17748
0.17613
0.0969248
0.057898
0.0508963
0.0491457
0.0483159
0.047321
0.0415954
0.0366083
0.0340558
0.0323599
0.0311391
0.0306531
0.0313471
0.0325032
0.0342024
0.036802
0.0418054
0.0474055
0.048725
0.0494281
0.0514776
0.0584274
0.0972815
0.17819
0.176386
0.0984338
0.0588987
0.0508469
0.0486642
0.0477746
0.0470895
0.0439156
0.0377187
0.0341923
0.0323481
0.0311084
0.0305697
0.0313132
0.0324896
0.0343321
0.0379493
0.0441741
0.0471863
0.048098
0.0489351
0.051317
0.0589961
0.0981314
0.17834
0.175978
0.0988709
0.0593437
0.0507956
0.0482573
0.0471981
0.0466893
0.0450468
0.0398529
0.034697
0.0323947
0.0311019
0.0305501
0.0313064
0.0325647
0.0349728
0.0404085
0.0453638
0.0468191
0.0475502
0.0485899
0.051406
0.059983
0.0992708
0.177517
0.174211
0.0989657
0.059855
0.0508329
0.0479808
0.0467287
0.046143
0.0449102
0.0420993
0.0361198
0.0326559
0.0311331
0.0305647
0.0313277
0.0328385
0.0365174
0.0425246
0.0452237
0.0463086
0.0470931
0.0483526
0.0514463
0.0604251
0.0990959
0.175743
0.167882
0.0976108
0.0603067
0.0508595
0.0477802
0.0463527
0.0455997
0.0445872
0.0429765
0.0386158
0.0335803
0.0313259
0.0306883
0.0314977
0.0338142
0.039013
0.0431296
0.0448759
0.0457908
0.0467306
0.0481744
0.051409
0.060611
0.0973474
0.16944
0.0865997
0.231024
0.30616
0.330846
0.338184
0.341202
0.344485
0.348732
0.353826
0.359751
0.366007
0.372304
0.378381
0.384051
0.389309
0.394263
0.399079
0.402964
0.406158
0.409093
0.414552
0.433987
0.513054
0.598733
0.612948
0.614793
0.605566
0.567482
0.45899
0.149567
0.0785958
0.238766
0.312401
0.33521
0.341907
0.345043
0.348758
0.353481
0.359214
0.365737
0.372545
0.37929
0.385726
0.391605
0.396867
0.401612
0.405688
0.409273
0.41252
0.417001
0.429185
0.490095
0.603848
0.62792
0.630459
0.626787
0.612828
0.572349
0.46472
0.150359
0.081284
0.250511
0.318021
0.338017
0.344098
0.347662
0.352141
0.357801
0.364551
0.371847
0.379146
0.38622
0.39277
0.398667
0.403845
0.40815
0.411641
0.414837
0.418151
0.424416
0.459916
0.581193
0.62797
0.63276
0.633689
0.629899
0.615521
0.572067
0.461855
0.151573
0.0834086
0.257065
0.320242
0.339242
0.345557
0.350012
0.355668
0.36258
0.370218
0.378032
0.385714
0.393039
0.399666
0.405443
0.410455
0.414229
0.417109
0.420119
0.423871
0.442012
0.537483
0.625662
0.636902
0.638801
0.638884
0.63364
0.616847
0.568251
0.454367
0.152778
0.0834819
0.259175
0.321715
0.340693
0.347703
0.353315
0.360373
0.3682
0.376505
0.38473
0.392648
0.400086
0.406652
0.412219
0.416948
0.420331
0.423037
0.425931
0.434432
0.489426
0.612286
0.639907
0.643469
0.645349
0.644369
0.637244
0.616721
0.56245
0.443791
0.153681
0.0837217
0.261969
0.323947
0.342955
0.35085
0.357716
0.365749
0.374436
0.383278
0.391808
0.399802
0.407132
0.413476
0.41877
0.42321
0.426015
0.428902
0.433361
0.460479
0.575059
0.639214
0.646439
0.649388
0.650789
0.648467
0.639114
0.614796
0.554711
0.430909
0.154222
0.0844069
0.265554
0.326988
0.346049
0.354912
0.36285
0.371846
0.381067
0.390188
0.398729
0.406499
0.413501
0.419398
0.424326
0.428261
0.43123
0.434463
0.446461
0.517876
0.628646
0.648163
0.650944
0.653031
0.653238
0.649781
0.637892
0.609729
0.544161
0.4159
0.154403
0.0854571
0.269692
0.330728
0.349911
0.35969
0.368588
0.378126
0.387469
0.396446
0.404542
0.411668
0.418043
0.423416
0.427934
0.431479
0.435147
0.441044
0.475665
0.597878
0.648579
0.651415
0.652624
0.653305
0.651793
0.646823
0.632727
0.601124
0.530939
0.399976
0.154231
0.0865292
0.274159
0.334968
0.354336
0.364792
0.374198
0.383693
0.392602
0.400895
0.408208
0.414495
0.420017
0.424874
0.428944
0.433002
0.437697
0.453562
0.536182
0.639431
0.652441
0.650395
0.650015
0.648382
0.646014
0.639576
0.623342
0.588527
0.514822
0.383538
0.153661
0.0874652
0.278969
0.339607
0.358935
0.3695
0.37866
0.387276
0.39522
0.402201
0.408265
0.413705
0.418315
0.422539
0.426839
0.431642
0.440411
0.481822
0.604747
0.648495
0.647772
0.64389
0.641361
0.638575
0.635757
0.628021
0.6098
0.572399
0.496461
0.366919
0.152783
0.0883248
0.284226
0.344426
0.362978
0.372559
0.380467
0.38748
0.393606
0.398743
0.403403
0.407791
0.411907
0.416193
0.420968
0.427329
0.448921
0.542584
0.634872
0.642984
0.636111
0.63116
0.626863
0.624418
0.621155
0.612447
0.59281
0.553485
0.476605
0.350437
0.151658
0.0891833
0.289925
0.348802
0.36517
0.372218
0.377534
0.382071
0.386065
0.389296
0.39293
0.396572
0.400408
0.404794
0.410257
0.422578
0.479214
0.600322
0.627195
0.624528
0.617428
0.61163
0.607778
0.60593
0.602594
0.59343
0.572866
0.532336
0.455726
0.334232
0.150324
0.0902047
0.295794
0.351523
0.363758
0.366608
0.368299
0.369697
0.371511
0.37327
0.375916
0.378913
0.382591
0.3874
0.395831
0.428787
0.539147
0.592099
0.600205
0.597435
0.592183
0.586563
0.584555
0.583725
0.58075
0.57148
0.550548
0.50957
0.434312
0.318365
0.148802
0.0913495
0.301046
0.350915
0.356915
0.354287
0.351773
0.349957
0.349701
0.350151
0.352091
0.354765
0.358789
0.365456
0.386364
0.467318
0.538585
0.55634
0.563005
0.563868
0.561607
0.557819
0.558094
0.55854
0.556334
0.547327
0.52653
0.485829
0.412829
0.303016
0.147103
0.0928446
0.304312
0.345166
0.343153
0.334553
0.327851
0.323068
0.321204
0.321083
0.323077
0.326483
0.332517
0.346572
0.399931
0.468906
0.493918
0.509902
0.520402
0.526009
0.527245
0.52684
0.529337
0.531394
0.530216
0.521777
0.50151
0.461689
0.391619
0.288398
0.145259
0.0944435
0.303672
0.332724
0.321925
0.307755
0.297675
0.291036
0.289062
0.289584
0.293086
0.298752
0.309653
0.339806
0.388939
0.417402
0.440429
0.460946
0.475802
0.485641
0.49161
0.494952
0.499397
0.503317
0.503216
0.495597
0.476137
0.437626
0.370973
0.274652
0.143311
0.0964408
0.297957
0.313013
0.293732
0.2757
0.264373
0.257675
0.255068
0.256925
0.265512
0.276084
0.287856
0.31045
0.337101
0.364172
0.390527
0.414518
0.431561
0.446109
0.456812
0.463017
0.469617
0.475171
0.476066
0.469451
0.450981
0.414092
0.351204
0.261781
0.141291
0.0982619
0.284775
0.285563
0.26128
0.242953
0.231588
0.228171
0.234532
0.237683
0.241408
0.24658
0.254189
0.271991
0.295414
0.321094
0.348121
0.372682
0.391316
0.409797
0.423759
0.432419
0.440893
0.447714
0.449491
0.443881
0.426495
0.391472
0.332547
0.249868
0.139231
0.100324
0.266028
0.255741
0.229386
0.214422
0.223344
0.230253
0.234438
0.237198
0.2382
0.240019
0.243099
0.254055
0.26904
0.290313
0.315477
0.338509
0.357157
0.377198
0.393425
0.404061
0.41394
0.421515
0.424112
0.419431
0.403073
0.370002
0.315069
0.238903
0.137156
0.102459
0.242394
0.226348
0.211356
0.233896
0.252505
0.266215
0.270901
0.271769
0.26745
0.260932
0.254854
0.253952
0.258829
0.272656
0.292526
0.312012
0.329281
0.349172
0.366502
0.378627
0.389209
0.397039
0.400409
0.396405
0.380946
0.349812
0.298821
0.228825
0.135077
0.10505
0.223481
0.212883
0.252124
0.292501
0.321648
0.337991
0.339502
0.334758
0.319385
0.299599
0.280843
0.266726
0.260314
0.264991
0.277598
0.292081
0.30827
0.326305
0.34337
0.356219
0.366819
0.374812
0.378513
0.374916
0.360303
0.331067
0.283868
0.219552
0.133011
0.11117
0.222907
0.272761
0.337151
0.383525
0.414208
0.430148
0.428091
0.412265
0.381673
0.346021
0.31246
0.285332
0.268137
0.263479
0.268383
0.278202
0.293042
0.308466
0.324122
0.336789
0.346892
0.354839
0.358547
0.355067
0.34124
0.313789
0.270172
0.211062
0.130986
0.130069
0.263785
0.360417
0.414642
0.472812
0.508928
0.528367
0.517894
0.483731
0.4378
0.387457
0.341968
0.304604
0.277608
0.264526
0.262064
0.269119
0.281983
0.29523
0.30837
0.32017
0.329586
0.337184
0.340582
0.336953
0.323745
0.297938
0.257594
0.203365
0.129024
0.173812
0.393536
0.385453
0.465837
0.544096
0.590414
0.608477
0.580359
0.526079
0.470352
0.415361
0.366162
0.320995
0.285049
0.266049
0.259886
0.263278
0.2734
0.28488
0.295648
0.306111
0.314989
0.322012
0.324641
0.320655
0.307795
0.283496
0.24605
0.196351
0.127146
0.218007
0.287223
0.37166
0.50403
0.603395
0.657637
0.653181
0.598761
0.528627
0.468719
0.423196
0.380579
0.334287
0.290502
0.268249
0.259908
0.260433
0.267443
0.277479
0.286335
0.294268
0.302348
0.308647
0.310514
0.305984
0.293399
0.270566
0.235649
0.189855
0.12536
0.149588
0.459153
0.567694
0.605698
0.61488
0.612969
0.598621
0.512814
0.433686
0.414353
0.40894
0.406091
0.402974
0.399069
0.394251
0.389474
0.384388
0.3788
0.37275
0.366435
0.360094
0.354144
0.349078
0.344828
0.341567
0.338551
0.331173
0.306339
0.231033
0.0866114
0.150387
0.464991
0.572654
0.613038
0.626911
0.630525
0.627839
0.60359
0.489825
0.428963
0.416819
0.41253
0.409423
0.405914
0.401784
0.397184
0.392104
0.386288
0.379817
0.373004
0.366161
0.359581
0.353868
0.349106
0.345413
0.342257
0.335501
0.312509
0.238675
0.0786626
0.151608
0.462242
0.572437
0.615759
0.630049
0.633774
0.63272
0.627735
0.58096
0.459637
0.424174
0.418052
0.414981
0.411909
0.408648
0.404357
0.399169
0.393253
0.386662
0.379505
0.372312
0.365013
0.358274
0.352569
0.348063
0.344474
0.338331
0.318177
0.250487
0.0813286
0.152831
0.454871
0.568599
0.617086
0.633818
0.639019
0.638834
0.636764
0.625422
0.537054
0.441767
0.423811
0.420194
0.417482
0.41487
0.41107
0.406002
0.400176
0.393517
0.386155
0.378554
0.370798
0.363207
0.356303
0.350528
0.34598
0.339627
0.320522
0.257207
0.0834919
0.153712
0.444282
0.562752
0.616948
0.637446
0.644556
0.645502
0.643468
0.63975
0.611881
0.488882
0.434463
0.426191
0.423484
0.421032
0.417641
0.412847
0.407213
0.400598
0.39315
0.385322
0.37715
0.368834
0.361127
0.354092
0.34825
0.341112
0.322018
0.259361
0.0835428
0.154253
0.431371
0.555
0.615044
0.639371
0.648737
0.65107
0.64957
0.646423
0.638972
0.573969
0.460384
0.433765
0.429478
0.426792
0.423949
0.419436
0.414058
0.407659
0.400337
0.392435
0.383947
0.375098
0.366418
0.358362
0.351534
0.343425
0.324284
0.262202
0.0837529
0.154443
0.416347
0.544479
0.610019
0.638213
0.650162
0.653652
0.653431
0.651132
0.648361
0.628809
0.517619
0.446819
0.435116
0.432036
0.42911
0.424974
0.419957
0.413976
0.407015
0.399347
0.390838
0.381729
0.372446
0.363456
0.355419
0.346547
0.327363
0.265847
0.0845652
0.154277
0.40038
0.531325
0.601497
0.633149
0.647352
0.65236
0.653955
0.653318
0.652035
0.649058
0.59818
0.476109
0.441809
0.435918
0.432029
0.428533
0.423926
0.418397
0.412162
0.405089
0.397031
0.388085
0.378673
0.369101
0.360193
0.350373
0.331124
0.269966
0.0855301
0.153715
0.383937
0.515283
0.588983
0.623877
0.640268
0.646779
0.64925
0.650986
0.651177
0.653176
0.640078
0.53692
0.45437
0.438313
0.433389
0.429266
0.425223
0.42023
0.414799
0.40846
0.40118
0.392914
0.384071
0.374581
0.365206
0.354734
0.335404
0.274516
0.0866688
0.152853
0.367349
0.497012
0.572966
0.61046
0.62885
0.636719
0.639621
0.642424
0.644736
0.648417
0.649366
0.605895
0.482895
0.440693
0.431831
0.426877
0.422576
0.418264
0.413589
0.408192
0.402198
0.395178
0.387392
0.378792
0.369728
0.359276
0.34003
0.279352
0.0876244
0.151742
0.350927
0.477265
0.554176
0.593583
0.613415
0.622246
0.625498
0.627977
0.632024
0.636547
0.642816
0.635544
0.544638
0.449247
0.427227
0.420749
0.415944
0.411561
0.407416
0.403011
0.39831
0.393177
0.387159
0.380243
0.372564
0.363202
0.344806
0.284601
0.0884385
0.150424
0.334803
0.456502
0.533149
0.573745
0.594493
0.603748
0.607081
0.608836
0.612544
0.617674
0.623887
0.626395
0.600764
0.480407
0.422402
0.409709
0.404223
0.399738
0.395907
0.392272
0.388617
0.385331
0.381501
0.377167
0.371981
0.365217
0.349081
0.290294
0.0893564
0.148921
0.319041
0.435211
0.510501
0.551519
0.572604
0.581962
0.584919
0.585547
0.587327
0.592301
0.596587
0.598692
0.590764
0.539655
0.429031
0.395172
0.386557
0.381578
0.377903
0.374897
0.372233
0.370449
0.368744
0.367689
0.366103
0.363515
0.351605
0.296067
0.0903271
0.147243
0.303773
0.413814
0.486832
0.527549
0.548473
0.557547
0.559739
0.559016
0.558427
0.561562
0.562938
0.561316
0.554236
0.536521
0.468073
0.386305
0.364673
0.357609
0.353504
0.350721
0.348818
0.348261
0.348546
0.350651
0.353404
0.356307
0.350731
0.301183
0.0914652
0.145415
0.289159
0.39261
0.462719
0.502535
0.522897
0.531408
0.532524
0.530267
0.527301
0.526976
0.524953
0.518663
0.507427
0.490636
0.465544
0.400549
0.346508
0.331904
0.325566
0.321711
0.319579
0.31956
0.32134
0.326179
0.333157
0.34214
0.344619
0.304277
0.0929708
0.143476
0.275372
0.37195
0.43868
0.477142
0.496652
0.504369
0.504369
0.500255
0.49526
0.491236
0.484467
0.474078
0.458473
0.436855
0.412796
0.38426
0.339226
0.310035
0.298325
0.291945
0.288156
0.287536
0.28923
0.295687
0.305856
0.320438
0.331817
0.303459
0.0945903
0.141468
0.262489
0.352177
0.415161
0.451958
0.470408
0.477177
0.476135
0.470304
0.463362
0.456316
0.44489
0.429844
0.412156
0.387194
0.359866
0.33207
0.305777
0.284275
0.275114
0.265411
0.256488
0.253273
0.2557
0.262603
0.273605
0.291822
0.311701
0.297609
0.0965734
0.139421
0.250569
0.333492
0.392518
0.427454
0.44475
0.450475
0.448586
0.441522
0.432605
0.423212
0.408614
0.389676
0.370482
0.345152
0.317485
0.291706
0.268861
0.251746
0.245071
0.239924
0.236527
0.234671
0.22928
0.229683
0.241181
0.259378
0.284026
0.284195
0.0984271
0.137354
0.239595
0.315966
0.371018
0.404
0.420204
0.424922
0.422314
0.414509
0.404126
0.392817
0.376074
0.355638
0.336679
0.313087
0.287682
0.266929
0.253041
0.243716
0.241989
0.240184
0.238838
0.23585
0.23226
0.22641
0.215248
0.227824
0.254307
0.265355
0.100559
0.135272
0.229481
0.299647
0.350794
0.381822
0.397092
0.401072
0.397733
0.389699
0.378605
0.365892
0.348156
0.327995
0.310518
0.29072
0.271045
0.258338
0.254692
0.257792
0.266245
0.273586
0.277836
0.276485
0.27129
0.25826
0.239993
0.215064
0.225461
0.241762
0.102709
0.133194
0.220126
0.284595
0.331958
0.36109
0.375543
0.379059
0.375351
0.367302
0.356188
0.342832
0.325487
0.307352
0.291011
0.276405
0.26428
0.261206
0.268981
0.285671
0.307237
0.328061
0.343721
0.349382
0.347183
0.330785
0.302537
0.261991
0.217783
0.223049
0.105405
0.131153
0.211512
0.270794
0.314579
0.34194
0.355647
0.358994
0.355196
0.347328
0.336827
0.323678
0.307834
0.292457
0.277486
0.267732
0.263491
0.270099
0.289001
0.318865
0.355388
0.391935
0.422314
0.438968
0.441243
0.426157
0.395479
0.349721
0.285178
0.225938
0.112117
0.129174
0.203681
0.258138
0.298627
0.324388
0.337482
0.340938
0.337416
0.329983
0.320036
0.308077
0.294999
0.281481
0.268585
0.261862
0.265039
0.280049
0.309271
0.349627
0.398377
0.44881
0.49384
0.528516
0.537884
0.519556
0.484972
0.42725
0.374699
0.275555
0.1347
0.12728
0.196595
0.246533
0.284064
0.308353
0.321097
0.324876
0.322147
0.315208
0.306145
0.295513
0.284856
0.273071
0.263131
0.260261
0.267273
0.287851
0.326088
0.373534
0.424821
0.478331
0.532338
0.588034
0.616747
0.598189
0.552617
0.476817
0.398187
0.409252
0.181569
0.125475
0.19009
0.236049
0.271
0.29384
0.306348
0.310712
0.308672
0.302458
0.294404
0.286479
0.27749
0.26721
0.260551
0.260543
0.269709
0.2939
0.340941
0.387656
0.428548
0.474212
0.532741
0.60324
0.658704
0.664753
0.611658
0.514281
0.383185
0.300433
0.224563
0.0610022
0.0611512
0.0613016
0.061452
0.0616025
0.0617576
0.0622255
0.0776295
0.134852
0.173093
0.194148
0.21143
0.227323
0.240565
0.250491
0.25725
0.26095
0.262842
0.263862
0.26428
0.262321
0.259457
0.25601
0.252731
0.249327
0.245094
0.242979
0.240422
0.237479
0.234248
0.231185
0.228249
0.225365
0.222915
0.220651
0.218422
0.21619
0.214046
0.212041
0.210161
0.208438
0.206851
0.205409
0.204063
0.202607
0.200868
0.198695
0.195862
0.192015
0.187084
0.181745
0.176691
0.172096
0.167742
0.163463
0.159311
0.155213
0.151252
0.147629
0.144409
0.141518
0.138891
0.136538
0.134458
0.132598
0.130901
0.129307
0.127762
0.126214
0.124654
0.123088
0.121552
0.120078
0.118675
0.11735
0.116099
0.114926
0.113817
0.112753
0.111734
0.110771
0.109863
0.109001
0.108183
0.107412
0.10671
0.10609
0.10555
0.105081
0.104677
0.104325
0.104026
0.103784
0.103603
0.103478
0.103398
0.103355
0.103346
0.103375
0.103451
0.103585
0.103781
0.104042
0.104361
0.10473
0.105144
0.105599
0.106087
0.10661
0.10718
0.107797
0.108457
0.109151
0.109877
0.110659
0.111533
0.112539
0.113657
0.114828
0.11605
0.117391
0.118842
0.120397
0.122055
0.123809
0.219253
0.219526
0.21977
0.220006
0.22024
0.220476
0.216793
0.082033
0.105516
0.164254
0.194036
0.213284
0.231577
0.250279
0.271305
0.291821
0.311364
0.327832
0.33574
0.335304
0.328466
0.320869
0.313395
0.307584
0.304219
0.301881
0.300078
0.299907
0.300274
0.300266
0.299474
0.298576
0.298344
0.299157
0.30065
0.302899
0.306263
0.310878
0.316609
0.323648
0.332602
0.343377
0.355293
0.368273
0.380091
0.388687
0.392198
0.38997
0.381668
0.36743
0.347808
0.327215
0.307836
0.29034
0.27418
0.259929
0.247414
0.236432
0.226952
0.218757
0.211593
0.205333
0.199908
0.19538
0.191723
0.188735
0.186159
0.183679
0.181122
0.178631
0.17623
0.173909
0.171546
0.169215
0.167047
0.1651
0.163286
0.161568
0.159856
0.158152
0.156594
0.155066
0.153619
0.152268
0.150962
0.149689
0.148489
0.147406
0.146443
0.145545
0.144672
0.143871
0.143223
0.142726
0.14234
0.14202
0.141743
0.141498
0.141306
0.141201
0.141199
0.141313
0.141508
0.141787
0.142162
0.14263
0.143176
0.143793
0.144475
0.145233
0.14613
0.14714
0.148201
0.149338
0.150652
0.15227
0.154319
0.156773
0.15933
0.162182
0.165527
0.169327
0.173626
0.178573
0.184162
0.286692
0.28687
0.28703
0.287184
0.287336
0.28749
0.285868
0.13005
0.100892
0.162421
0.194344
0.212134
0.226854
0.24102
0.256177
0.269732
0.282115
0.290896
0.294272
0.292744
0.292497
0.292085
0.291884
0.293172
0.296712
0.300415
0.303797
0.308485
0.313789
0.319062
0.3239
0.328052
0.332362
0.337571
0.343644
0.350946
0.35978
0.370222
0.382181
0.395874
0.411263
0.427592
0.444308
0.459573
0.474669
0.491388
0.506043
0.511527
0.507089
0.495365
0.480157
0.458947
0.431382
0.403215
0.37628
0.351582
0.328919
0.308625
0.291701
0.277586
0.26585
0.255807
0.247085
0.239711
0.233664
0.228436
0.223881
0.220061
0.216628
0.213063
0.209357
0.205758
0.202434
0.199373
0.196533
0.193928
0.191486
0.189143
0.186826
0.184551
0.18244
0.180522
0.178775
0.177115
0.17549
0.173957
0.172562
0.171319
0.170228
0.169263
0.168382
0.167538
0.166762
0.166098
0.165545
0.165078
0.164684
0.164366
0.16414
0.164032
0.164077
0.164278
0.164594
0.164989
0.165471
0.166049
0.16673
0.167494
0.16835
0.16934
0.170463
0.171713
0.173096
0.174634
0.17645
0.178803
0.181879
0.185345
0.188965
0.193169
0.198138
0.203913
0.21055
0.218108
0.226664
0.310539
0.310617
0.310685
0.310751
0.310815
0.31088
0.310665
0.220994
0.0882174
0.151111