/*--------------------------------*- C++ -*----------------------------------*\
| =========                 |                                                 |
| \\      /  F ield         | OpenFOAM: The Open Source CFD Toolbox           |
|  \\    /   O peration     | Version:  2112                                  |
|   \\  /    A nd           | Website:  www.openfoam.com                      |
|    \\/     M anipulation  |                                                 |
\*---------------------------------------------------------------------------*/
FoamFile
{
    version     2.0;
    format      ascii;
    arch        "LSB;label=32;scalar=64";
    class       volScalarField;
    location    "0.00397";
    object      T;
}
// * * * * * * * * * * * * * * * * * * * * * * * * * * * * * * * * * * * * * //

dimensions      [0 0 0 1 0 0 0];

internalField   nonuniform List<scalar> 
13875
(
1412.01
1535.55
1482.6
1487.38
1481.06
1483.41
1483.48
1483.27
1483.49
1484.26
1483.93
1484.24
1483.65
1484.01
1484.01
1483.49
1482.95
1483.32
1482.83
1483.49
1481.02
1487.64
1480.7
1532.58
1396.65
1307.05
1356.18
1319.15
1322.26
1316.69
1317.17
1317.12
1318.01
1320.33
1322.64
1322.87
1322.91
1318.1
1317.76
1318.46
1322.37
1322.25
1322
1317.76
1317.09
1315.88
1321.91
1319.66
1355.89
1303.37
1307.25
1340.05
1314.46
1311.45
1303.79
1304.17
1303.5
1303.48
1303.67
1305.2
1305.39
1305.58
1304.16
1304.35
1304.12
1305.29
1302.85
1304.7
1303.91
1304.56
1303.64
1310.87
1311.49
1336.35
1298.55
1317.39
1344.83
1314.89
1308.55
1304.97
1304.66
1303.65
1303.58
1303.72
1303.9
1303.7
1304.35
1304.22
1304.36
1304.22
1303.88
1302.37
1304.02
1304.09
1304.85
1304.28
1307.46
1313.94
1343.98
1312.22
1329.55
1342.12
1315.89
1312.06
1303.3
1303.96
1303.72
1303.46
1303.93
1303.99
1303.79
1304.38
1304.41
1304.53
1304.29
1303.67
1302.47
1303.76
1304.08
1304.75
1303.4
1311.5
1312.16
1338.43
1316.03
1332.24
1351.17
1319.03
1309.7
1306.73
1305.98
1304.53
1304.12
1304.31
1304.01
1304.05
1304.53
1304.62
1304.85
1304.71
1304.08
1302.75
1304.27
1304.89
1306.28
1306.19
1308.2
1318.94
1348.9
1325.76
1339.04
1360.47
1329.2
1317.11
1306.59
1306.01
1305.05
1304.88
1305.19
1304.58
1304.57
1304.87
1305.24
1305.53
1305.18
1304.29
1303.47
1304.58
1305.28
1306.61
1306.77
1317.26
1325.96
1358.22
1321.28
1359.87
1384.77
1344.27
1321.03
1315.74
1311.45
1308.3
1306.9
1306.51
1305.88
1305.71
1305.98
1306.45
1306.92
1306.55
1305.43
1304.78
1306.22
1307.85
1311.5
1314.77
1320.45
1341.28
1380.89
1350.5
1537.18
1507.97
1387.29
1350.75
1322.23
1315.36
1311.59
1309.7
1309.51
1308.65
1308.17
1308.3
1309.18
1309.7
1309.11
1307.91
1307.67
1309.07
1311.15
1315.37
1321.66
1348.21
1384.06
1507.43
1523.38
1836.24
1575.4
1428.86
1362.16
1341.64
1325.77
1318.91
1315.95
1315.37
1314.2
1313.49
1313.64
1314.8
1315.39
1314.77
1313.55
1313.42
1315.19
1318.31
1325.77
1338.31
1361.32
1425.67
1566.39
1829.18
2511.72
1804.08
1523.06
1431.39
1358.93
1341.22
1332.2
1328.8
1327.66
1326.02
1325.2
1325.32
1326.71
1327.39
1326.85
1325.94
1325.76
1327.95
1332.14
1340.14
1357.13
1421.54
1512.56
1807.82
2441.61
2817.06
2304.73
1777.29
1486.68
1428.49
1389.38
1366.8
1359.68
1356.12
1354.04
1353.09
1353.22
1354.48
1355.19
1354.89
1354.73
1355
1358.59
1366.69
1392.2
1419.51
1474.97
1738.99
2295.61
2842.29
2794.77
2678.71
2441.02
2293.43
1586.45
1488.99
1465.47
1449.57
1444.29
1441.43
1440.24
1440.45
1441.28
1441.77
1442.03
1442.82
1444.7
1450.27
1469.02
1496.39
1622.69
2323.03
2388.13
2702.86
2782.1
2710.38
2668.67
2817.21
2805.38
2069.21
2057.58
1861.15
1755.68
1725.14
1715.99
1712.07
1711.13
1711.04
1711.96
1713.37
1717.34
1727.54
1759.86
1880.44
2134.56
2061.12
2821.33
2824.01
2705.07
2700.39
2643.49
2702.64
2789.24
2791.13
2809.44
2989.29
2962.77
3012.65
3131.73
3123.8
3136.81
3123.86
3133.07
3132.01
3135.09
3124.31
3133.18
3040.09
2997.38
2995.19
2828.13
2813.32
2813.75
2699.06
2654.91
2518.01
2580.73
2777.61
2915.78
2969.89
3318.51
3552.6
3679.5
3690.14
3678.05
3670.65
3667.4
3667.14
3667.93
3669.22
3673.77
3686.88
3683.78
3561.49
3354.45
2985.67
2927.84
2781.09
2602.09
2562.64
2427.11
2563.18
2689.74
2816.15
2933.11
3214.91
3432.16
3603.83
3660.32
3655.15
3650.49
3647.3
3647.2
3647.95
3648.51
3650.34
3657.46
3633.14
3507.68
3277.22
2966.28
2849.79
2714.52
2568.66
2431.06
2215.57
2394.49
2705.99
2910.25
2888.33
3164.45
3367.22
3494.98
3529.24
3536.59
3533.48
3534.74
3534.28
3534.81
3531.57
3533.01
3523.95
3480.52
3346.13
3140.19
2907.93
2929.88
2686.28
2368.84
2211.66
2075.51
2205.64
2516.52
2684.59
2718.1
2867
3087.14
3286.81
3380.94
3412.74
3426.53
3429.39
3431.57
3428.44
3423.1
3407.04
3382.16
3303.72
3109.59
2877.19
2745.92
2723.55
2519.35
2203.07
2081.5
2202.33
2053.78
2396.57
2482.05
2525.48
2624.02
2823.55
3057.99
3226.29
3296.3
3314.79
3326.96
3328.84
3327.18
3313.7
3296.59
3236.47
3076.66
2831.51
2631.43
2535.12
2472.47
2347.94
2059.12
2209.14
3110.28
2320.97
2176.79
2297.64
2369.34
2470.5
2643.4
2880.09
3073.13
3172.27
3207.66
3216.85
3222.26
3217.02
3207.19
3172.22
3074.95
2880.18
2638.95
2471.36
2369.79
2283.74
2168.56
2310.79
3193.45
3070.3
2118.21
1983.04
2146.95
2237.84
2353.39
2505.16
2729.16
2937.64
3050.62
3090.15
3109.64
3111.95
3109.68
3088.56
3046.74
2931.92
2723.33
2498.6
2355.17
2234.72
2129.25
1977.29
2128.51
3149.07
3022.47
2115.02
1886.27
2032.69
2129.41
2262.88
2391.53
2601.95
2803.46
2929.35
2981.39
2994.95
3002.3
2993.79
2978.91
2926.7
2799.99
2597.59
2387.7
2267.89
2124.67
2019.71
1875.69
2123.93
3075.04
2959.61
2094.24
1892.99
1965.99
2055.14
2171.69
2297.09
2500.57
2698.42
2817.19
2865.92
2890.75
2893.03
2889.81
2863.62
2813.77
2695.45
2499.2
2290.53
2170.65
2052.79
1948.81
1883.14
2083.7
2960.89
2843.87
2068.68
1908.41
1931.15
1993.31
2091.23
2211.5
2412.68
2594.03
2712.57
2766.2
2780.84
2788.58
2779.05
2762.95
2707.31
2586.29
2402.52
2200.82
2089.62
1995.48
1923.21
1896.18
2089.91
2887.72
2828.27
2100.77
1930
1908.3
1947.97
2021.07
2141.98
2332.14
2507.34
2614.34
2660.34
2684.77
2686.18
2683.63
2656.87
2609.46
2503.8
2330.51
2135.56
2015.54
1948.91
1898.88
1915.37
2081.54
2804.93
2776.64
2129.41
1964.12
1894.66
1910.55
1966.65
2081.47
2265.3
2420.62
2523.05
2572.83
2583.12
2590.86
2581.04
2567.1
2517.7
2414.07
2258.45
2075.09
1963.35
1911.14
1893.57
1958.52
2128.27
2791.96
2770.63
2167.99
1984.75
1899.68
1888.9
1922.98
2038.19
2207.14
2352.56
2439.7
2476.69
2498.33
2498.75
2496.99
2471.1
2431.95
2344.96
2200.8
2029.4
1914.81
1886.31
1890.89
1962.16
2159.51
2808.06
2796.92
2166.36
1978.24
1895.96
1870.7
1892.19
1992.4
2150.22
2275.44
2356.38
2399.89
2407.04
2414.89
2404.78
2394.9
2352.88
2271.24
2148.34
1992.12
1893.6
1869.7
1896.63
1972.73
2148.35
2823.57
2851.33
2186.35
1984.87
1894.68
1860.93
1869.74
1969.64
2108.63
2221
2287.72
2314.77
2334.2
2333.39
2331.96
2308.5
2279.56
2214.1
2104.62
1963.62
1865.07
1860.47
1888.21
1973.52
2192.75
2852.72
2798.51
2192.11
1967.55
1897.81
1839.29
1859.71
1944.52
2069.31
2158.71
2213.3
2249.51
2252.81
2260.52
2250.61
2244.26
2209.15
2149.19
2061.07
1938.75
1857.02
1840.62
1900.37
1974.64
2204.46
2835.02
2794.28
2206.23
1996.11
1905.18
1829.64
1842.11
1925.64
2034.31
2111.65
2157.68
2174.26
2190.7
2189.46
2189.88
2168.84
2151
2107.15
2033.5
1920.54
1839.73
1831.95
1903.39
1984.84
2208.15
2793.59
2760.57
2203.53
2009.06
1895.32
1823.63
1836.03
1909.01
2001.04
2060.95
2091.65
2120.61
2119.63
2127.08
2118.43
2115.27
2087.8
2050.78
1995.43
1906.23
1831.62
1826.74
1905.91
2009.95
2199.77
2777.84
2732.64
2192.97
2056.3
1921.86
1827.52
1820.87
1896.62
1974.24
2022.19
2050.14
2055.79
2068.13
2065.86
2067.82
2050.06
2043.44
2017.78
1970.26
1888.21
1813.65
1827.21
1912.35
2046.11
2202.26
2747.59
2714.93
2202.31
2088.29
1915.24
1837.55
1816.96
1879.76
1943.09
1978.33
1989.27
2011.99
2006.98
2013.34
2006.24
2007.42
1986.46
1970.39
1941.14
1882.18
1811.18
1844.02
1921.99
2095.12
2189.91
2718.69
2691.32
2192.88
2084.54
1947.95
1848.47
1810.18
1864.57
1920.85
1943.5
1960.68
1957.02
1965.98
1961.66
1964.75
1951.57
1955.22
1941.03
1915.4
1859.3
1805.53
1849.17
1948.87
2094.74
2196.88
2706.32
2661.93
2179.88
2081.75
1965.4
1866.51
1820.02
1858.1
1890.67
1906.6
1906.09
1921.82
1913.39
1918.16
1912.07
1918.18
1903.48
1898.46
1888.83
1858.69
1812.75
1869.4
1978.41
2091.74
2176.32
2684.13
2647.26
2161.58
2077.88
2033.48
1887.3
1829.93
1844.56
1872.12
1873.41
1884.19
1875.41
1880.44
1874.53
1879.93
1871.15
1880.57
1873.58
1863.47
1841.15
1832.53
1882.8
2040.61
2084.69
2159.03
2653.2
2629.1
2148.35
2063.98
2023.88
1904.74
1857.07
1848.31
1845.49
1842.51
1834.82
1846.18
1834.38
1838.56
1834.43
1843.56
1832.78
1835.3
1847.43
1849.09
1859.9
1913.72
2037.65
2069.09
2140.42
2638.71
2597.74
2127.45
2035.35
2028.75
1952.46
1869.61
1854.79
1837.68
1818.04
1821.65
1807.13
1808.63
1801.94
1808.92
1802.95
1817.99
1817.76
1825.83
1841.95
1871.61
1958.14
2033.87
2031.81
2133.1
2611.8
2582.99
2121.21
2004.45
2010.78
2011.09
1904.9
1877.91
1821.63
1794.66
1776.58
1782.63
1768.71
1771.99
1768.57
1780.72
1774.08
1788.24
1825.98
1874.68
1899.06
2029.69
2023.07
1999.65
2114.05
2582.97
2553.58
2109.37
1979.12
2003.02
2016.44
1926.61
1878.39
1827.32
1783.67
1773.31
1750.42
1749.19
1741.59
1748.76
1746.5
1771.16
1780.8
1817.83
1873.77
1942.08
2028.54
2007.54
1975.93
2112.23
2553.67
2530.65
2098.92
1959.2
1964
1998.32
1985.93
1912.06
1832.92
1778.91
1732.87
1731.29
1714.18
1716.73
1714.2
1729.29
1729.56
1768.88
1836.4
1911.78
1996.2
2007.66
1969.5
1958.31
2103.97
2536.05
2497.7
2092.82
1943.58
1939.86
1989.18
2037.52
1929.46
1844.13
1779.41
1750.33
1708.36
1700.63
1691.56
1700.49
1704.4
1748.38
1771.77
1836.37
1934.41
2056.61
1995.74
1944.12
1942.28
2087.32
2503.56
2482.52
2088.41
1936.25
1905.5
1952.71
2018.44
1991.23
1860.8
1787.79
1714.46
1699.79
1672.79
1672.73
1672.9
1697.15
1710.84
1783
1867.52
2015.88
2036.68
1950.17
1912.29
1937.75
2087.01
2489.1
2451.09
2067.45
1923.64
1892.21
1922.8
2006.93
2073.5
1896.92
1794.11
1753.43
1697.55
1673.55
1658.05
1672.59
1690.58
1752.56
1789.68
1885.65
2071.06
2016.59
1922.14
1895.4
1927.78
2073.42
2461.15
2437.74
2065.6
1922.9
1868.24
1886.3
1975.1
2052.99
1972.82
1821.02
1721.31
1700.02
1658.3
1652.71
1658.75
1694.53
1715.35
1817.54
1971.67
2053.43
1982.61
1886.15
1877.32
1926.68
2064.16
2449.61
2400.07
2044.87
1909.36
1866.82
1868.63
1932.68
2034.89
2051.78
1860.36
1769.99
1701.68
1675.15
1653.86
1675.49
1696.46
1772.72
1876.41
2050.25
2035.48
1938.75
1869.19
1871.19
1914.42
2048.86
2405
2368.31
2033.24
1903.38
1848.23
1845.98
1898.71
2012.08
2032.19
1959.26
1750.14
1711.68
1660.25
1656.72
1660.68
1708.51
1746.27
1983.43
2036.07
2013.39
1906.56
1847.44
1858.84
1908.57
2035.48
2377.57
2227.69
1985.11
1877.79
1846.41
1840.71
1864.87
1966.14
2019.07
2010.29
1852.57
1732.29
1687.53
1664.24
1687.77
1728.93
1852.83
2007.9
2019.5
1970.04
1873.99
1842.09
1852.54
1881.29
1985.52
2231.81
279.988
280.513
281.091
281.256
281.499
281.511
281.712
282.193
282.646
283.269
283.819
284.274
284.61
284.867
285.11
285.48
286.056
286.247
286.356
286.59
288.457
294.462
323.139
357.192
360.191
360.975
362.015
363.149
366.135
380.51
280.611
281.004
281.422
281.646
281.939
281.972
282.201
282.656
283.179
283.915
284.634
285.289
285.837
286.214
286.433
286.612
286.541
286.442
286.505
287.598
291.131
308.37
349.457
358.137
361.447
361.66
361.174
361.109
363.1
375.503
281.105
281.613
281.949
282.219
282.51
282.571
282.841
283.373
284.052
284.9
285.681
286.394
286.904
287.271
287.494
287.455
287.135
287.027
287.377
288.996
298.307
343.93
355.697
358.042
358.535
358.374
358.458
359.013
362.729
373.451
281.686
282.264
282.532
282.863
283.133
283.261
283.65
284.357
285.031
285.737
286.41
287.059
287.526
287.853
288.084
287.875
287.395
287.433
287.969
292.371
325.787
354.011
357.161
357.717
357.474
357.046
357.353
358.091
361.891
369.655
282.314
282.978
283.166
283.521
283.818
284.078
284.711
285.331
285.848
286.342
286.86
287.457
287.915
288.224
288.431
288.122
287.755
287.816
289.61
305.039
349.8
356.792
357.812
357.683
356.935
356.609
356.819
357.569
361.509
367.496
282.852
283.756
283.799
284.176
284.551
284.962
285.47
285.998
286.384
286.76
287.213
287.805
288.275
288.573
288.75
288.173
288.133
288.768
295.222
335.969
355.047
357.681
358.052
357.656
356.829
356.561
356.72
357.334
361.253
365.077
283.629
284.516
284.493
284.813
285.246
285.632
286.087
286.464
286.783
287.126
287.557
288.117
288.494
288.748
288.774
288.545
288.713
291.418
312.791
350.997
357.523
358.4
358.258
357.604
356.997
356.651
356.689
357.115
360.732
362.728
284.538
285.129
285.151
285.368
285.807
286.192
286.558
286.82
287.121
287.378
287.651
288.107
288.443
288.662
288.597
288.952
289.989
298.704
342.617
357.297
359.251
359.186
358.618
357.548
356.896
356.45
356.396
356.588
359.566
360.518
285.364
285.646
285.675
285.83
286.267
286.66
286.986
287.169
287.39
287.578
287.743
288.055
288.362
288.458
288.895
289.66
293.611
321.018
356.315
361.063
360.847
360.163
358.609
357.493
356.584
355.877
355.561
355.552
358.192
358.499
285.983
286.076
286.085
286.247
286.754
287.208
287.454
287.628
287.673
287.681
287.855
287.983
288.143
288.544
289.392
291.644
303.134
349.931
362.739
364.058
362.522
360.826
358.561
357.305
356.102
354.979
354.441
354.399
356.866
356.827
286.438
286.427
286.445
286.698
287.308
287.878
288.168
288.143
287.892
287.752
287.867
288.042
288.395
289.131
290.568
296.811
333.126
367.155
369.112
366.986
364.532
361.199
358.721
357.002
355.437
354.063
353.41
353.4
355.892
355.779
286.79
286.728
286.841
287.213
287.888
288.431
288.742
288.662
288.263
288.265
288.459
288.732
289.181
290.15
293.766
314.685
369.945
375.097
373.429
370.006
366.324
361.824
358.938
356.83
354.858
353.263
352.523
352.634
355.163
354.881
287.127
287.079
287.303
287.824
288.484
289.009
289.319
289.327
289.132
289.232
289.472
289.787
290.427
292.629
304.539
363.421
381.108
380.861
377.345
373.334
367.686
362.616
359.296
356.803
354.508
352.636
351.854
352.122
354.479
353.908
287.354
287.57
287.866
288.592
289.211
289.821
290.323
290.508
290.584
290.893
291.342
291.917
293.473
301.512
351.858
386.877
388.563
386
381.675
376.945
369.116
363.665
359.777
356.869
354.281
352.206
351.37
351.79
353.882
353.147
287.711
288.169
288.623
289.617
290.348
291.226
292.127
292.871
293.855
294.835
296.22
298.211
304.55
346.042
391.793
396.586
395.538
391.464
386.533
380.141
370.857
364.962
360.478
357.12
354.16
351.896
351.053
351.527
353.357
352.393
288.173
288.875
289.617
291.063
292.442
294.26
296.676
299.674
303.406
307.471
312.787
323.74
354
396.244
405.12
405.344
403.333
397.812
390.667
383.241
373.057
366.323
361.404
357.562
354.162
351.71
350.878
351.349
352.846
351.644
288.84
289.805
291.153
293.502
296.877
301.942
310.609
321.832
342.169
359.108
373.201
382.634
402.068
414.716
417.843
416.915
412.8
403.09
394.363
386.662
375.253
367.723
362.364
357.972
354.235
351.626
350.801
351.259
352.399
350.988
289.327
290.761
293.573
299.413
309.168
327.293
368.405
401.758
414.846
418.196
420.574
420.407
430.948
435.761
435.057
430.25
421.124
407.304
398.391
389.854
377.265
368.99
363.184
358.303
354.259
351.647
350.893
351.228
352.025
350.396
289.598
292.312
298.988
314.672
354.877
423.291
462.802
479.563
485.494
484.599
481.036
472.556
470.356
460.447
453.092
442.944
428.57
411.605
401.572
392.44
378.882
370.02
363.733
358.53
354.325
351.785
351.094
351.285
351.705
349.784
290.579
296.368
315.357
378.086
475.898
538.746
578.328
593.194
596.933
591.621
574.341
546.982
518.734
490.284
470.917
454.234
434.92
414.91
403.583
394.17
380.078
370.856
364.028
358.778
354.415
351.951
351.298
351.34
351.378
349.023
292.738
307.512
381.822
529.263
630.37
709.66
745.077
755.24
759.725
744.631
696.534
638.239
574.662
521.541
488.998
464.834
437.501
417.323
404.734
394.766
380.647
371.482
364.372
358.988
354.469
352.123
351.458
351.314
350.973
348.255
296.805
351.266
551.739
723.645
839.78
913.721
944.802
972.285
988.492
959.145
863.353
743.103
633.657
555.12
508.856
473.913
437.978
418.208
404.738
394.731
380.711
371.718
364.635
359.128
354.546
352.353
351.558
351.215
350.561
347.539
326.768
499.928
828.258
938.73
1059.53
1132.83
1206.16
1271.36
1258.55
1173.29
1042.86
855.809
692.551
587.242
524.5
476.857
438.24
418.272
403.55
394.066
379.739
372.076
364.841
359.205
354.726
352.667
351.675
351.14
350.245
346.878
360.03
728.987
1051.49
1115.33
1269.95
1404.38
1467.32
1445.74
1342.71
1227.84
1098.39
941.189
756.853
618.766
535.397
479.416
438.483
417.505
401.124
392.882
378.924
372.319
365.008
359.601
355.176
353.01
351.787
351.102
350.034
346.39
495.098
1065.15
1196.18
1298.37
1503.87
1586.73
1565.76
1465.93
1333.07
1215.78
1099.4
960.033
806.483
642.09
541.309
480.193
438.774
416.421
400.611
391.977
377.899
371.595
364.878
360.236
355.663
353.303
351.942
351.089
349.815
346.103
380.886
366.372
363.32
362.169
361.094
360.277
357.246
323.197
294.493
288.506
286.686
286.479
286.387
286.187
285.609
285.371
285.225
284.995
284.658
284.177
283.569
282.921
282.489
281.996
281.805
281.797
281.546
281.353
280.753
280.14
375.857
363.237
361.275
361.327
361.774
361.538
358.187
349.483
308.428
291.192
287.715
286.721
286.709
286.874
286.896
286.816
286.733
286.385
285.788
285.039
284.28
283.499
282.999
282.517
282.298
282.252
281.944
281.69
281.266
280.838
373.757
362.851
359.119
358.545
358.437
358.585
358.082
355.719
343.98
298.363
289.106
287.556
287.329
287.518
288.003
288.051
287.808
287.386
286.81
286.009
285.297
284.441
283.774
283.213
282.93
282.848
282.534
282.23
281.901
281.345
369.928
361.978
358.158
357.389
357.07
357.509
357.743
357.183
354.035
325.674
292.478
288.169
287.697
287.861
288.514
288.706
288.414
288.019
287.476
286.778
286.161
285.502
284.88
284.175
283.696
283.506
283.21
282.831
282.562
281.959
367.619
361.56
357.574
356.822
356.603
356.94
357.722
357.84
356.838
349.655
304.997
289.898
288.205
288.265
288.809
289.076
288.796
288.418
287.872
287.246
286.797
286.335
285.838
285.344
284.725
284.277
283.895
283.482
283.305
282.63
365.178
361.26
357.311
356.716
356.541
356.822
357.707
358.113
357.759
355.093
335.611
295.613
289.284
288.732
288.912
289.422
289.155
288.784
288.225
287.611
287.232
286.875
286.494
285.994
285.501
285.135
284.588
284.147
284.121
283.177
362.806
360.736
357.091
356.676
356.626
356.991
357.67
358.404
358.539
357.861
351.5
313.258
291.936
289.351
289.281
289.536
289.331
289.001
288.519
287.965
287.606
287.267
286.945
286.515
286.098
285.669
285.25
284.872
284.912
283.975
360.548
359.559
356.559
356.376
356.427
356.907
357.641
358.884
359.616
359.857
358.062
343.57
299.437
290.744
289.68
289.15
289.248
288.955
288.491
288.119
287.87
287.602
287.298
286.945
286.561
286.205
285.771
285.555
285.546
284.937
358.503
358.184
355.53
355.537
355.872
356.645
357.635
358.95
360.783
361.613
361.983
357.414
322.109
294.484
290.346
289.384
288.907
288.814
288.423
288.181
287.946
287.745
287.499
287.313
286.96
286.588
286.155
286.084
286.081
285.806
356.812
356.852
354.396
354.447
355.012
356.214
357.531
358.974
361.528
363.372
365.047
364.036
351.437
304.089
292.148
289.857
288.898
288.476
288.274
288.106
287.941
287.958
287.822
287.713
287.399
286.964
286.522
286.456
286.502
286.441
355.752
355.887
353.421
353.451
354.131
355.621
357.318
359.14
361.989
365.427
367.98
370.112
368.359
334.733
297.409
290.963
289.462
288.684
288.3
288.12
287.98
288.053
288.233
288.258
287.929
287.444
286.931
286.774
286.799
286.858
354.914
355.213
352.694
352.617
353.385
355.112
357.202
359.418
362.605
367.33
371.019
374.304
375.899
370.884
315.922
294.176
290.429
289.445
288.975
288.719
288.527
288.497
288.789
288.906
288.609
288.027
287.426
287.121
287.027
287.119
354.019
354.603
352.252
352.021
352.829
354.811
357.211
359.837
363.383
368.736
374.363
378.144
381.541
381.826
364.89
305.337
293.009
290.718
290.064
289.746
289.503
289.385
289.54
289.54
289.367
288.728
288.038
287.551
287.321
287.345
353.299
354.075
351.984
351.604
352.462
354.611
357.347
360.407
364.409
370.12
377.944
382.418
386.663
389.254
387.782
354.605
302.659
294.055
292.391
291.758
291.275
290.979
290.824
290.605
290.241
289.598
288.868
288.135
287.756
287.518
352.632
353.604
351.775
351.312
352.185
354.504
357.669
361.161
365.778
371.796
380.972
387.273
392.134
396.239
397.433
392.972
350.53
306.42
299.748
297.37
295.736
294.623
293.528
292.676
291.699
290.82
290.026
288.941
288.35
287.862
351.932
353.14
351.66
351.166
352.024
354.551
358.143
362.118
367.209
373.859
383.932
391.319
398.504
404.13
406.247
406.126
397.57
358.974
331.251
317.523
310.499
305.782
301.35
297.83
294.985
293
291.57
290.014
289.102
288.349
351.328
352.732
351.623
351.122
351.96
354.639
358.598
363.108
368.556
376.201
387.234
394.824
403.719
413.68
417.987
419.127
415.721
402.749
386.059
379.693
367.826
352.055
329.102
314.174
303.824
297.878
294.167
291.635
290.126
289.082
350.781
352.408
351.616
351.223
352.006
354.688
358.882
363.93
369.807
378.218
390.355
398.703
407.834
421.941
431.268
436.284
437.464
432.489
424.141
425.067
423.6
421.424
410.822
381.169
335.529
312.143
300.7
294.279
291.209
289.654
350.216
352.143
351.718
351.46
352.171
354.758
359.055
364.462
370.812
379.751
392.778
401.788
411.971
429.411
444.106
454.309
463.05
473.215
479.347
488.553
493.103
494.997
489.529
473.306
436.819
369.1
318.51
300.217
292.941
290.04
349.463
351.856
351.819
351.688
352.344
354.839
359.257
364.718
371.559
380.78
394.265
403.649
414.991
435.558
455.249
472.172
494.465
523.145
557.461
587.22
605.494
611.327
608.074
594.316
555.044
491.793
395.11
319.557
297.472
291.195
348.7
351.455
351.803
351.853
352.493
354.888
359.427
364.954
372.196
381.181
394.628
404.555
417.096
438.065
465.663
490.318
527.474
579.977
652.166
718.216
766.959
781.222
776.373
765.946
733.75
655.168
549.602
400.081
310.48
293.531
348.006
351.018
351.672
351.953
352.686
354.937
359.53
365.116
372.3
381.254
394.519
404.188
417.789
438.634
474.868
510.32
562.606
641.379
760.192
895.451
996.346
1023.81
1004.27
970.124
940.017
871.758
752.452
575.769
363.758
298.613
347.34
350.652
351.557
352.046
352.986
355.075
359.575
365.215
372.495
379.901
393.93
403.077
417.841
438.869
478.373
525.637
595.662
705.002
879.016
1068.16
1195.8
1282.16
1308.72
1241.19
1162.23
1091.58
966.681
860.954
525.505
333.997
346.791
350.424
351.481
352.123
353.28
355.417
359.756
365.265
372.514
378.927
392.62
400.725
417.112
439.319
481.743
537.48
628.04
773.714
953.406
1113.95
1236.93
1347.92
1455.88
1489.63
1437.49
1303.13
1141.96
1077.99
764.895
373.288
346.455
350.173
351.427
352.246
353.527
355.859
360.35
365.031
371.608
377.914
391.594
400.051
415.968
439.271
482.133
544.847
650.925
822.555
966.835
1106.55
1220.43
1334.23
1467.44
1572.69
1602.59
1530.66
1326.52
1213.24
1099.94
518.844
274.003
274.003
274.003
274.003
274.003
274.017
275.016
322.598
751.038
1164.67
1199.15
1191.95
1192.98
1195.74
1190.59
1153.67
1136.42
1126.02
1105.28
1079.39
1048.8
1022.98
1014.22
1013.55
1014.16
1005.75
1003.66
999.246
992.64
983.072
971.583
961.801
953.103
944.792
935.593
926.272
916.855
908.547
903.213
900.234
897.688
893.728
888.871
884.629
879.713
873.939
866.141
855.053
839.698
822.701
803.628
784.514
765.674
746.086
727.363
709.424
691.199
673.751
657.493
642.75
629.387
616.937
605.805
596.074
587.664
579.819
572.535
565.352
558.115
550.886
543.572
536.283
529.153
522.28
515.596
509.084
502.758
496.55
490.306
484.31
478.678
473.288
468.022
462.718
457.379
452.259
447.556
443.098
438.8
434.617
430.569
426.724
423.098
419.686
416.421
413.203
409.967
406.688
403.372
400.032
396.71
393.421
390.19
387.012
383.842
380.638
377.492
374.31
371.081
367.999
365.094
362.39
359.893
357.426
355.063
352.935
351.105
349.887
348.956
347.826
347.134
346.606
346.326
346.254
346.304
274.001
274.001
274.001
274.001
274.001
274.015
274.864
313.527
719.834
1147.93
1179.77
1167.6
1171.79
1177.82
1148.41
1101.96
1063.1
1033.66
1001.41
974.192
962.466
961.987
967.599
980.968
991.75
992.166
986.666
986.032
986.19
983.993
978.37
972.603
967.401
962.712
958.817
954.168
948.769
946.479
945.906
945.642
946.749
950.657
956.123
963.098
969.477
971.673
969.446
956.519
934.614
903.397
869.758
838.986
810.95
781.247
755.384
731.604
710.181
690.958
673.55
657.888
643.52
630.141
617.956
607.495
598.595
590.503
583.039
575.827
568.608
561.346
553.975
546.584
539.228
532.065
525.107
518.236
511.541
504.947
498.399
492.133
486.239
480.657
475.199
469.726
464.33
459.14
454.367
449.807
445.352
440.996
436.758
432.692
428.833
425.136
421.588
418.098
414.517
410.83
407.07
403.298
399.616
396.083
392.659
389.31
386.015
382.726
379.526
376.328
373.149
370.138
367.313
364.713
362.31
359.965
357.793
355.827
354.209
353.241
352.248
351.269
350.637
350.184
349.94
349.928
350.017
274
274
274
274
274.001
274.007
274.416
291.753
606.398
1098.98
1179.24
1180.5
1186.52
1181.94
1116.64
1060.2
1018.09
979.668
948.556
931.687
933.658
944.041
962.064
986.289
1008.09
1010.6
1004.8
1001.19
1000.12
998.717
996.056
991.675
988.64
987.799
987.466
988.994
990.661
992.548
997.413
1007.71
1023.11
1044.22
1078.96
1129.16
1192.23
1228.25
1235.24
1221.15
1174.08
1095.7
1010.39
940.619
885.154
840.798
801.892
769.528
741.233
717.892
697.746
679.707
663.305
648.402
634.468
621.822
611.321
601.709
592.872
584.327
575.841
567.605
559.694
551.938
544.324
537.038
530.064
523.268
516.647
510.156
503.702
497.494
491.701
486.119
480.665
475.283
470.02
464.913
460.163
455.662
451.298
447.058
442.972
439.171
435.609
432.191
428.855
425.446
421.872
418.181
414.354
410.379
406.331
402.387
398.591
394.895
391.313
387.788
384.43
381.193
378.036
375.069
372.202
369.435
366.742
364.119
361.525
359.217
357.21
356.202
354.675
353.497
352.705
352.08
351.613
351.403
351.42
274
274
274
274
274
274.002
274.125
279.57
454.909
974.379
1154.15
1176.1
1188.71
1172.59
1113.15
1046.56
980.645
940.943
925.617
923.426
938.865
990.727
1010.52
1012.53
1015.36
1014.16
1011.5
1010.39
1009.96
1010.09
1013.4
1016.31
1020.23
1025.28
1033.19
1042.25
1053.49
1069.25
1096.1
1141.38
1212.86
1319.49
1485.18
1695.89
1910.58
2016.39
2039.84
2009.78
1905.52
1724.44
1518.45
1297.01
1120.49
1004.42
917.883
851.829
800.303
760.532
729.848
706.606
686.758
670.639
655.725
641.765
628.863
617.184
606.857
597.714
588.879
580.073
570.937
561.922
553.569
545.644
537.915
530.335
523.386
516.854
510.404
504.284
498.385
492.809
487.397
481.969
476.636
471.567
466.943
462.663
458.544
454.518
450.766
447.105
443.419
439.813
436.236
432.567
428.835
424.991
420.93
416.709
412.478
408.249
404.161
400.19
396.331
392.538
388.952
385.446
382.044
378.863
375.905
373.043
370.289
367.553
365.071
362.581
360.417
359.278
357.363
355.93
354.805
353.908
353.229
352.749
352.473
274
274
274
274
274
274.001
274.026
275.356
335.566
785.524
1122.45
1166.03
1181.22
1153.13
1096.37
1028.98
937.092
908.036
909.189
935.25
986.111
1000.82
1004.21
1009.67
1017.02
1024.57
1027.45
1030.04
1035.92
1038.76
1043.4
1053.01
1067.21
1083.03
1101.59
1127.21
1167.67
1227.83
1326.3
1487.5
1753.31
2105.99
2394.32
2491.55
2515.57
2519.79
2508.53
2473.12
2409.29
2298.93
2169.26
1960.41
1709.2
1475.83
1261.71
1087.29
953.111
859.601
794.394
749.407
718.272
695.766
677.975
662.581
649.112
637.408
626.631
616.243
606.875
597.998
589.12
580.313
571.718
563.408
554.93
546.089
537.818
529.846
522.063
514.989
508.56
502.599
496.988
491.554
486.296
481.11
476.201
471.468
466.865
462.429
457.934
453.676
449.561
445.7
442.015
438.323
434.534
430.732
426.706
422.491
418.116
413.651
409.158
404.799
400.631
396.651
393.089
389.77
386.548
383.338
380.039
376.831
373.72
370.787
368
365.108
362.885
361.16
359.124
357.584
356.373
355.432
354.671
354.093
353.754
274
274
274
274
274
274
274.005
274.285
286.511
554.532
1034.09
1162.2
1174.14
1132.71
1069.14
961.587
921.585
919.975
952.323
977.531
998.492
1006.5
1012.04
1016.85
1030.7
1049.86
1059.2
1063.32
1071.92
1085.1
1099.96
1116.53
1143.6
1177.16
1219.2
1285.26
1400.36
1597.59
1921.88
2322.29
2517.38
2570.88
2580.99
2575.05
2571.11
2563.43
2557.26
2544.17
2506.44
2444.02
2344.36
2250.16
2092.4
1900.23
1700.36
1485.87
1285.33
1098.9
943.972
843.478
788.001
750.692
718.606
693.088
674.198
658.243
645.827
635.579
625.628
616.348
607.636
599.244
590.653
582.154
574.402
566.625
558.231
549.627
541.455
533.653
525.965
518.601
511.629
504.98
498.684
492.821
487.297
481.843
476.537
471.488
466.676
462.242
458.237
454.383
450.319
446.102
441.789
437.266
432.797
428.216
423.661
419.133
414.908
410.874
406.934
403.048
399.334
395.454
391.664
388.012
384.506
381.068
377.738
374.688
371.613
369.159
367.038
364.999
362.881
361.166
359.787
358.713
357.82
356.95
356.326
274
274
274
274
274
274
274.001
274.046
276.373
374.593
830.072
1138.31
1155.69
1100.61
991.807
948.036
946.796
962.425
992.342
1010.19
1011.77
1010.47
1023.65
1041.51
1057.99
1071.62
1090.3
1114.13
1141.6
1168.88
1202.14
1250.43
1306.88
1379.04
1484.78
1663.64
1943.89
2268.63
2469.73
2534.08
2548.04
2530.6
2514.86
2517.12
2521.7
2517.76
2505.55
2515.97
2503.23
2473.88
2405.76
2320.91
2240.67
2109.58
1954.97
1773.83
1580.39
1387.51
1185.42
1019.85
918.321
857.976
805.264
758.609
728.05
703.391
683.445
668.802
659.344
652.667
644.082
633.693
624.28
614.81
605.624
596.937
588.063
578.811
569.878
561.101
552.334
543.839
535.305
526.704
518.241
510.209
502.618
495.503
489.065
483.322
477.994
472.999
467.827
463.112
458.463
453.727
448.971
444.605
440.41
436.224
431.62
426.901
422.313
417.93
413.908
410.221
406.432
402.568
399.009
395.458
391.819
388.243
384.543
380.844
377.556
374.4
371.27
368.829
367.025
365.384
364.007
362.903
362.056
361.365
360.955
274
274
274
274
274
274
274
274.004
274.218
285.033
554.79
1040.12
1131.36
1029.38
982.408
982.373
1003.71
1013.78
1015.55
1021.23
1022.83
1025.66
1038.33
1053.85
1070.22
1091.55
1121.83
1162.77
1212.53
1275.6
1359.66
1455.99
1558.67
1698.62
1891.63
2126.88
2347.76
2455.94
2491.06
2496.03
2475.08
2466.35
2485.14
2519.02
2525.83
2525.68
2475.88
2430.99
2388.75
2369.15
2368.51
2330.75
2291.62
2222.86
2110.53
1970.14
1817.82
1648.74
1450.87
1264.86
1119.51
1015.41
934.938
871.685
823.883
781.98
750.073
727.78
710.89
696.747
683.848
672.331
663.545
656.175
648.019
640.381
632.386
623.669
614.034
604.35