/*--------------------------------*- C++ -*----------------------------------*\
| =========                 |                                                 |
| \\      /  F ield         | OpenFOAM: The Open Source CFD Toolbox           |
|  \\    /   O peration     | Version:  2112                                  |
|   \\  /    A nd           | Website:  www.openfoam.com                      |
|    \\/     M anipulation  |                                                 |
\*---------------------------------------------------------------------------*/
FoamFile
{
    version     2.0;
    format      ascii;
    arch        "LSB;label=32;scalar=64";
    class       volScalarField;
    location    "0.00969";
    object      epsilon;
}
// * * * * * * * * * * * * * * * * * * * * * * * * * * * * * * * * * * * * * //

dimensions      [0 2 -3 0 0 0 0];

internalField   nonuniform List<scalar> 
13875
(
1.16003e+06
2.94631e+07
3.28262e+07
3.28406e+07
3.29092e+07
3.28455e+07
3.28981e+07
3.2908e+07
3.29061e+07
3.2932e+07
3.29175e+07
3.28986e+07
3.28685e+07
3.28437e+07
3.28608e+07
3.29107e+07
3.29485e+07
3.29127e+07
3.28932e+07
3.28608e+07
3.28993e+07
3.28304e+07
3.28022e+07
2.9474e+07
1.17838e+06
1.3139e+06
2.27478e+07
2.53572e+07
2.52392e+07
2.52804e+07
2.52235e+07
2.52325e+07
2.52377e+07
2.52187e+07
2.52269e+07
2.52226e+07
2.52405e+07
2.52096e+07
2.51939e+07
2.52006e+07
2.52503e+07
2.52462e+07
2.52363e+07
2.5225e+07
2.52291e+07
2.52695e+07
2.52198e+07
2.53268e+07
2.27532e+07
1.34278e+06
1.57303e+06
1.97067e+07
2.18309e+07
2.16269e+07
2.1697e+07
2.16438e+07
2.15681e+07
2.15474e+07
2.15174e+07
2.15127e+07
2.15025e+07
2.1536e+07
2.16073e+07
2.16031e+07
2.15973e+07
2.15475e+07
2.1532e+07
2.15304e+07
2.15484e+07
2.16408e+07
2.16832e+07
2.16019e+07
2.17886e+07
1.96917e+07
1.58506e+06
1.81371e+06
1.73851e+07
1.90387e+07
1.88797e+07
1.89647e+07
1.89156e+07
1.8829e+07
1.88057e+07
1.87835e+07
1.87738e+07
1.87616e+07
1.87771e+07
1.88847e+07
1.88811e+07
1.88767e+07
1.87879e+07
1.87943e+07
1.87801e+07
1.88064e+07
1.8915e+07
1.8952e+07
1.88579e+07
1.90133e+07
1.73686e+07
1.82072e+06
2.02278e+06
1.54521e+07
1.67723e+07
1.66205e+07
1.67011e+07
1.66594e+07
1.65688e+07
1.65581e+07
1.65381e+07
1.65251e+07
1.65189e+07
1.65253e+07
1.66268e+07
1.66279e+07
1.66199e+07
1.65338e+07
1.65477e+07
1.65306e+07
1.65526e+07
1.66547e+07
1.66901e+07
1.6605e+07
1.67435e+07
1.54329e+07
2.0361e+06
2.20649e+06
1.37119e+07
1.4928e+07
1.4738e+07
1.48296e+07
1.47776e+07
1.46788e+07
1.4677e+07
1.46591e+07
1.46434e+07
1.46413e+07
1.46399e+07
1.47377e+07
1.47428e+07
1.47321e+07
1.46468e+07
1.46679e+07
1.46474e+07
1.46668e+07
1.47749e+07
1.48194e+07
1.47291e+07
1.49033e+07
1.38488e+07
2.2223e+06
2.42262e+06
1.2251e+07
1.34775e+07
1.32067e+07
1.32688e+07
1.32036e+07
1.30909e+07
1.30922e+07
1.30758e+07
1.30569e+07
1.30576e+07
1.30493e+07
1.31448e+07
1.3152e+07
1.31381e+07
1.30552e+07
1.30837e+07
1.30611e+07
1.30854e+07
1.32005e+07
1.3257e+07
1.32013e+07
1.34217e+07
1.19511e+07
2.42881e+06
2.66607e+06
1.06156e+07
1.23125e+07
1.19744e+07
1.19984e+07
1.1889e+07
1.1757e+07
1.17518e+07
1.17344e+07
1.17123e+07
1.17165e+07
1.17002e+07
1.17943e+07
1.18046e+07
1.17882e+07
1.17051e+07
1.1743e+07
1.17203e+07
1.17514e+07
1.18844e+07
1.19813e+07
1.19655e+07
1.22649e+07
1.05428e+07
2.69452e+06
3.49656e+06
1.02129e+07
1.1482e+07
1.10284e+07
1.0938e+07
1.07873e+07
1.06287e+07
1.06193e+07
1.06008e+07
1.05745e+07
1.05827e+07
1.05591e+07
1.06515e+07
1.06648e+07
1.06473e+07
1.05659e+07
1.06087e+07
1.0586e+07
1.0625e+07
1.07804e+07
1.09225e+07
1.10214e+07
1.14753e+07
1.03373e+07
3.57498e+06
6.83611e+06
1.22208e+07
1.11966e+07
1.04269e+07
1.01642e+07
9.92663e+06
9.75659e+06
9.73563e+06
9.71275e+06
9.68488e+06
9.69449e+06
9.66809e+06
9.75428e+06
9.76994e+06
9.75309e+06
9.68314e+06
9.71959e+06
9.70786e+06
9.74527e+06
9.91536e+06
1.01433e+07
1.03601e+07
1.1162e+07
1.21305e+07
6.8947e+06
1.4915e+07
1.86782e+07
1.20459e+07
1.03199e+07
9.61466e+06
9.3172e+06
9.13351e+06
9.0792e+06
9.04315e+06
9.01312e+06
9.02118e+06
8.99494e+06
9.07126e+06
9.08936e+06
9.07829e+06
9.02843e+06
9.056e+06
9.06141e+06
9.12392e+06
9.2851e+06
9.60869e+06
1.02674e+07
1.18778e+07
1.79398e+07
1.50002e+07
2.54664e+07
6.86966e+07
1.8157e+07
1.07024e+07
9.70411e+06
9.01182e+06
8.7181e+06
8.61955e+06
8.55918e+06
8.52595e+06
8.52845e+06
8.50543e+06
8.56583e+06
8.58646e+06
8.58448e+06
8.55629e+06
8.58065e+06
8.61055e+06
8.70287e+06
9.01756e+06
9.65468e+06
1.05523e+07
1.75756e+07
6.72553e+07
2.50348e+07
2.658e+07
7.57484e+07
8.68538e+07
2.41361e+07
1.09481e+07
9.12316e+06
8.74464e+06
8.46631e+06
8.34328e+06
8.2862e+06
8.27229e+06
8.24828e+06
8.28944e+06
8.31147e+06
8.32332e+06
8.32601e+06
8.38057e+06
8.49216e+06
8.76241e+06
9.15194e+06
1.12971e+07
2.26212e+07
8.08216e+07
7.6468e+07
2.6082e+07
2.63471e+07
5.5016e+07
7.96979e+07
1.04885e+08
5.80522e+07
1.31402e+07
9.66262e+06
8.83356e+06
8.58231e+06
8.55358e+06
8.54186e+06
8.52167e+06
8.55319e+06
8.57303e+06
8.59387e+06
8.61545e+06
8.65494e+06
8.88773e+06
9.9519e+06
1.45131e+07
6.57557e+07
9.10711e+07
7.52792e+07
5.44642e+07
2.57547e+07
2.53281e+07
4.24668e+07
5.80393e+07
7.26372e+07
7.53545e+07
7.52996e+07
2.37075e+07
1.31256e+07
1.11063e+07
1.03893e+07
1.00992e+07
9.99217e+06
9.99105e+06
1.00203e+07
1.0105e+07
1.03425e+07
1.10332e+07
1.3187e+07
2.62986e+07
7.75845e+07
7.50083e+07
6.60571e+07
5.65681e+07
4.22073e+07
2.64134e+07
2.47029e+07
3.34754e+07
4.33413e+07
5.43799e+07
5.93338e+07
6.79867e+07
5.12084e+07
4.54998e+07
4.15361e+07
3.25707e+07
3.4495e+07
3.55864e+07
3.63629e+07
3.60714e+07
3.49381e+07
3.29869e+07
4.03113e+07
4.9077e+07
5.2053e+07
6.86361e+07
5.81791e+07
5.05178e+07
4.26011e+07
3.33949e+07
2.57943e+07
2.004e+07
2.52171e+07
3.22682e+07
4.20149e+07
4.95294e+07
6.19385e+07
7.0692e+07
7.04594e+07
5.73866e+07
4.95851e+07
5.21726e+07
5.48812e+07
5.64715e+07
5.5835e+07
5.2959e+07
5.31297e+07
5.78921e+07
7.0558e+07
7.07097e+07
6.13228e+07
4.71446e+07
3.90604e+07
3.08958e+07
2.45029e+07
1.99372e+07
1.48148e+07
1.90953e+07
2.64618e+07
3.74054e+07
4.541e+07
5.29917e+07
6.38023e+07
6.86181e+07
5.13218e+07
3.83453e+07
3.5285e+07
3.55737e+07
3.62345e+07
3.59074e+07
3.58226e+07
4.14549e+07
5.1734e+07
6.46948e+07
6.26931e+07
5.40821e+07
4.5255e+07
3.60379e+07
2.53703e+07
1.85545e+07
1.45171e+07
1.2213e+07
1.66908e+07
2.39789e+07
3.72804e+07
4.776e+07
4.62194e+07
4.93506e+07
5.47925e+07
4.53926e+07
3.41765e+07
2.87851e+07
2.72164e+07
2.7064e+07
2.7518e+07
2.95083e+07
3.55046e+07
4.39351e+07
5.12138e+07
4.87813e+07
4.79609e+07
5.05463e+07
3.69755e+07
2.35868e+07
1.64428e+07
1.20593e+07
1.16239e+07
1.82298e+07
2.49322e+07
3.6927e+07
4.34657e+07
3.92226e+07
3.87725e+07
4.23419e+07
3.8781e+07
3.13093e+07
2.55581e+07
2.24027e+07
2.14213e+07
2.29183e+07
2.66378e+07
3.21126e+07
3.69955e+07
3.96861e+07
3.85748e+07
4.07804e+07
4.51595e+07
3.62548e+07
2.47785e+07
1.83339e+07
1.17141e+07
2.99517e+07
5.98801e+07
4.51272e+07
3.22327e+07
3.45876e+07
3.16085e+07
3.10117e+07
3.38902e+07
3.28573e+07
2.76997e+07
2.22017e+07
1.84571e+07
1.7247e+07
1.9237e+07
2.35303e+07
2.83338e+07
3.12122e+07
3.19411e+07
3.10107e+07
3.28421e+07
3.57554e+07
3.30656e+07
5.00612e+07
6.54064e+07
3.8594e+07
9.28918e+07
3.00752e+08
6.15077e+07
2.61269e+07
2.73756e+07
2.56937e+07
2.53862e+07
2.7795e+07
2.7708e+07
2.39305e+07
1.90081e+07
1.52603e+07
1.40181e+07
1.60488e+07
2.0229e+07
2.4335e+07
2.62084e+07
2.63526e+07
2.53743e+07
2.65719e+07
2.81225e+07
2.70188e+07
6.78034e+07
2.9493e+08
1.08047e+08
1.10659e+08
2.3356e+08
5.09777e+07
2.17594e+07
2.21857e+07
2.12358e+07
2.10371e+07
2.30879e+07
2.32924e+07
2.03549e+07
1.60609e+07
1.26629e+07
1.14845e+07
1.3279e+07
1.70275e+07
2.05879e+07
2.19341e+07
2.19467e+07
2.09873e+07
2.175e+07
2.26219e+07
2.2439e+07
5.18005e+07
2.24783e+08
1.07891e+08
9.4651e+07
2.35649e+08
3.99567e+07
1.86339e+07
1.82619e+07
1.76481e+07
1.75512e+07
1.92248e+07
1.95404e+07
1.71416e+07
1.34214e+07
1.04909e+07
9.5115e+06
1.107e+07
1.43336e+07
1.73992e+07
1.84061e+07
1.83031e+07
1.75585e+07
1.80505e+07
1.86528e+07
1.92851e+07
4.13765e+07
2.42134e+08
9.41342e+07
8.66291e+07
2.25016e+08
3.33533e+07
1.62762e+07
1.54195e+07
1.4862e+07
1.48499e+07
1.61505e+07
1.64573e+07
1.44643e+07
1.12969e+07
8.79668e+06
7.97186e+06
9.29465e+06
1.21115e+07
1.47292e+07
1.5525e+07
1.53791e+07
1.48319e+07
1.51798e+07
1.58044e+07
1.68753e+07
3.5153e+07
2.39308e+08
8.73992e+07
7.98749e+07
2.18657e+08
2.87462e+07
1.42397e+07
1.32476e+07
1.26506e+07
1.27164e+07
1.36857e+07
1.39201e+07
1.22621e+07
9.59232e+06
7.45512e+06
6.75307e+06
7.86258e+06
1.02567e+07
1.24706e+07
1.3137e+07
1.30021e+07
1.26091e+07
1.28352e+07
1.35692e+07
1.46871e+07
3.01256e+07
2.29877e+08
8.18466e+07
7.58769e+07
1.9399e+08
2.43521e+07
1.24921e+07
1.15529e+07
1.08945e+07
1.09779e+07
1.16697e+07
1.17831e+07
1.0364e+07
8.14866e+06
6.36918e+06
5.78267e+06
6.73643e+06
8.77523e+06
1.06349e+07
1.12266e+07
1.11241e+07
1.08488e+07
1.10338e+07
1.18756e+07
1.29381e+07
2.59802e+07
2.05824e+08
7.83682e+07
7.21586e+07
1.75354e+08
2.14069e+07
1.11085e+07
1.02137e+07
9.52051e+06
9.57933e+06
1.00592e+07
1.0075e+07
8.86126e+06
7.0082e+06
5.5017e+06
4.99938e+06
5.80773e+06
7.52919e+06
9.09746e+06
9.63949e+06
9.58941e+06
9.41848e+06
9.60807e+06
1.04609e+07
1.14594e+07
2.29185e+07
1.89757e+08
7.35952e+07
6.68967e+07
1.63998e+08
1.92849e+07
9.95589e+06
9.10814e+06
8.45299e+06
8.43338e+06
8.73798e+06
8.67236e+06
7.61884e+06
6.07555e+06
4.7988e+06
4.35968e+06
5.04424e+06
6.48378e+06
7.79389e+06
8.31581e+06
8.32539e+06
8.24332e+06
8.45772e+06
9.26617e+06
1.02241e+07
2.01689e+07
1.65623e+08
6.97947e+07
6.19476e+07
1.45841e+08
1.75137e+07
9.00315e+06
8.13003e+06
7.55547e+06
7.4912e+06
7.62821e+06
7.47344e+06
6.55404e+06
5.27031e+06
4.20338e+06
3.83367e+06
4.4324e+06
5.66726e+06
6.7736e+06
7.25114e+06
7.30497e+06
7.30582e+06
7.53889e+06
8.25599e+06
9.23824e+06
1.84502e+07
1.5201e+08
6.54164e+07
5.7414e+07
1.26079e+08
1.60905e+07
8.2531e+06
7.30439e+06
6.79697e+06
6.70944e+06
6.72561e+06
6.51373e+06
5.70255e+06
4.62919e+06
3.72085e+06
3.39644e+06
3.9125e+06
4.95587e+06
5.88502e+06
6.34622e+06
6.45236e+06
6.52774e+06
6.75437e+06
7.36959e+06
8.42398e+06
1.67656e+07
1.31961e+08
6.06561e+07
5.34621e+07
1.13142e+08
1.4998e+07
7.68435e+06
6.60145e+06
6.13738e+06
6.04356e+06
5.98109e+06
5.72973e+06
5.01372e+06
4.10067e+06
3.31611e+06
3.03244e+06
3.47523e+06
4.3713e+06
5.16776e+06
5.59992e+06
5.74528e+06
5.86611e+06
6.07617e+06
6.62423e+06
7.79726e+06
1.54011e+07
1.15001e+08
5.64105e+07
4.97973e+07
9.69207e+07
1.38863e+07
7.22987e+06
6.01353e+06
5.57569e+06
5.45023e+06
5.33838e+06
5.04807e+06
4.40947e+06
3.63939e+06
2.9714e+06
2.72529e+06
3.11827e+06
3.89381e+06
4.57428e+06
4.98144e+06
5.15785e+06
5.29319e+06
5.50549e+06
6.01968e+06
7.30614e+06
1.44589e+07
1.0281e+08
5.24451e+07
4.67749e+07
8.44221e+07
1.28936e+07
6.88466e+06
5.54378e+06
5.09417e+06
4.92871e+06
4.79961e+06
4.49397e+06
3.92584e+06
3.26449e+06
2.68101e+06
2.46497e+06
2.80473e+06
3.48022e+06
4.07029e+06
4.44951e+06
4.65025e+06
4.78738e+06
5.01203e+06
5.52611e+06
6.91817e+06
1.35871e+07
8.93086e+07
4.89034e+07
4.405e+07
7.51726e+07
1.18951e+07
6.58489e+06
5.21244e+06
4.67708e+06
4.48298e+06
4.33137e+06
4.02602e+06
3.51348e+06
2.94494e+06
2.43528e+06
2.24239e+06
2.5407e+06
3.12727e+06
3.64108e+06
3.99962e+06
4.20748e+06
4.35577e+06
4.60598e+06
5.16683e+06
6.63095e+06
1.2539e+07
7.80223e+07
4.60018e+07
4.12664e+07
6.6545e+07
1.0954e+07
6.31963e+06
4.96435e+06
4.32285e+06
4.09046e+06
3.91561e+06
3.61824e+06
3.15981e+06
2.66444e+06
2.21783e+06
2.05061e+06
2.31551e+06
2.83922e+06
3.29065e+06
3.61892e+06
3.82105e+06
3.98595e+06
4.25309e+06
4.91658e+06
6.39945e+06
1.15965e+07
7.02979e+07
4.3374e+07
3.91066e+07
6.01056e+07
1.01675e+07
6.18564e+06
4.78547e+06
4.03355e+06
3.75977e+06
3.55973e+06
3.27107e+06
2.86114e+06
2.42883e+06
2.03446e+06
1.88405e+06
2.11842e+06
2.57837e+06
2.97633e+06
3.28002e+06
3.48232e+06
3.65979e+06
3.9588e+06
4.72815e+06
6.26346e+06
1.06408e+07
6.25448e+07
4.07507e+07
3.69751e+07
5.59231e+07
9.45407e+06
6.03963e+06
4.66214e+06
3.8214e+06
3.46879e+06
3.25062e+06
2.97313e+06
2.60814e+06
2.22721e+06
1.87252e+06
1.73884e+06
1.94575e+06
2.35827e+06
2.71056e+06
2.98517e+06
3.18979e+06
3.37614e+06
3.74446e+06
4.61458e+06
6.1214e+06
9.76043e+06
5.71854e+07
3.85804e+07
3.46592e+07
5.10439e+07
8.6768e+06
5.75265e+06
4.60257e+06
3.66442e+06
3.22475e+06
2.98215e+06
2.70893e+06
2.37932e+06
2.04372e+06
1.73021e+06
1.61182e+06
1.79872e+06
2.16833e+06
2.48115e+06
2.73438e+06
2.93897e+06
3.13969e+06
3.58314e+06
4.56835e+06
5.8649e+06
8.97868e+06
5.36693e+07
3.64391e+07
3.27838e+07
4.75778e+07
7.98768e+06
5.4447e+06
4.6045e+06
3.55485e+06
3.03386e+06
2.75586e+06
2.48609e+06
2.18773e+06
1.88943e+06
1.60555e+06
1.49913e+06
1.66452e+06
1.99925e+06
2.27801e+06
2.51091e+06
2.72366e+06
2.95629e+06
3.47557e+06
4.55145e+06
5.51767e+06
8.2657e+06
4.99426e+07
3.41868e+07
3.12678e+07
4.46812e+07
7.5835e+06
5.14728e+06
4.68021e+06
3.49316e+06
2.89059e+06
2.57175e+06
2.29625e+06
2.01965e+06
1.75173e+06
1.49549e+06
1.39935e+06
1.54686e+06
1.84747e+06
2.10032e+06
2.3217e+06
2.54559e+06
2.82312e+06
3.41257e+06
4.68875e+06
5.20911e+06
7.66498e+06
4.67735e+07
3.2342e+07
2.98228e+07
4.19144e+07
7.04755e+06
4.79242e+06
4.58262e+06
3.47727e+06
2.77594e+06
2.43085e+06
2.13455e+06
1.87138e+06
1.62831e+06
1.3953e+06
1.30981e+06
1.44346e+06
1.72021e+06
1.94985e+06
2.1641e+06
2.40889e+06
2.71597e+06
3.42066e+06
4.68423e+06
4.92689e+06
7.70379e+06
4.3757e+07
3.08832e+07
2.86302e+07
3.95138e+07
6.68399e+06
4.45095e+06
4.35282e+06
3.55669e+06
2.7023e+06
2.32277e+06
2.00615e+06
1.74541e+06
1.52065e+06
1.3073e+06
1.22964e+06
1.34964e+06
1.60142e+06
1.81497e+06
2.03093e+06
2.30376e+06
2.64242e+06
3.48252e+06
4.45798e+06
4.56651e+06
7.18625e+06
4.11139e+07
2.95639e+07
2.76464e+07
3.71513e+07
6.85946e+06
4.16005e+06
4.0747e+06
3.71244e+06
2.68672e+06
2.23152e+06
1.90863e+06
1.64201e+06
1.42766e+06
1.22817e+06
1.15733e+06
1.26572e+06
1.49787e+06
1.70103e+06
1.92761e+06
2.22053e+06
2.63611e+06
3.69042e+06
4.18061e+06
4.24222e+06
6.96828e+06
3.87093e+07
2.84832e+07
2.6676e+07
3.51628e+07
6.45471e+06
3.87034e+06
3.7781e+06
3.70266e+06
2.76397e+06
2.16862e+06
1.82707e+06
1.55821e+06
1.34597e+06
1.15794e+06
1.09311e+06
1.19308e+06
1.41271e+06
1.6114e+06
1.84611e+06
2.16416e+06
2.74947e+06
3.7342e+06
3.88142e+06
4.00076e+06
7.10329e+06
3.64954e+07
2.76e+07
2.58205e+07
3.31162e+07
6.55217e+06
3.66576e+06
3.49589e+06
3.48981e+06
2.99004e+06
2.16398e+06
1.76591e+06
1.49598e+06
1.28278e+06
1.10003e+06
1.03732e+06
1.13083e+06
1.34228e+06
1.54244e+06
1.77967e+06
2.15783e+06
2.97055e+06
3.52901e+06
3.58749e+06
3.75048e+06
6.89876e+06
3.44786e+07
2.67526e+07
2.50054e+07
3.12688e+07
6.71987e+06
3.53225e+06
3.25242e+06
3.26384e+06
3.05615e+06
2.29688e+06
1.72453e+06
1.44082e+06
1.23419e+06
1.05429e+06
987906
1.08179e+06
1.28771e+06
1.48497e+06
1.73243e+06
2.28167e+06
3.06805e+06
3.29909e+06
3.32716e+06
3.56584e+06
6.79437e+06
3.25921e+07
2.59039e+07
2.38519e+07
2.93924e+07
6.5513e+06
3.38593e+06
3.04268e+06
3.03345e+06
2.89679e+06
2.51965e+06
1.74767e+06
1.3953e+06
1.19195e+06
1.01827e+06
950300
1.0441e+06
1.2432e+06
1.43902e+06
1.75654e+06
2.5297e+06
2.92634e+06
3.0607e+06
3.10803e+06
3.46244e+06
6.89337e+06
3.05164e+07
2.47111e+07
2.24538e+07
2.73e+07
6.44348e+06
3.29034e+06
2.8642e+06
2.81047e+06
2.72806e+06
2.63036e+06
1.89153e+06
1.37413e+06
1.15803e+06
987519
922381
1.01166e+06
1.20502e+06
1.4123e+06
1.88736e+06
2.67273e+06
2.75775e+06
2.82942e+06
2.91588e+06
3.34752e+06
6.65932e+06
2.83719e+07
2.32536e+07
1.94895e+07
2.42636e+07
6.27556e+06
3.20884e+06
2.71467e+06
2.62172e+06
2.55538e+06
2.51412e+06
2.14304e+06
1.43571e+06
1.13729e+06
961300
897090
983574
1.17805e+06
1.45792e+06
2.14369e+06
2.57096e+06
2.58412e+06
2.63414e+06
2.7515e+06
3.238e+06
6.36917e+06
2.52447e+07
2.02044e+07
9.08922e+06
5.23306e+06
3.60766e+06
2.45317e+06
1.69549e+06
1.2805e+06
1.04476e+06
890786
762295
634608
506875
388434
290140
219899
172376
141139
119722
104726
94003.3
86375.6
80282.7
74841.7
69647.5
64733.2
59867.9
55405.9
52120
50829
56546.8
107939
1.01147e+07
5.55092e+06
3.78197e+06
2.5508e+06
1.75665e+06
1.32711e+06
1.08337e+06
925419
796792
672309
547027
428972
326141
247744
192004
153714
127335
109138
96754.2
87313.5
80073.6
74120.6
68677
63523
58743.7
54740.4
51643
50526.9
56688.5
107923
1.03491e+07
5.69391e+06
3.93511e+06
2.65364e+06
1.8289e+06
1.3851e+06
1.13447e+06
972180
841242
715156
589294
469016
361267
274218
210117
165084
133918
112631
97759.6
86746.3
78941.4
72512
67251.4
62222.1
57707.4
53936.1
51089.3
50317.1
56844.9
107418
1.09018e+07
6.07154e+06
4.21065e+06
2.82853e+06
1.94807e+06
1.47517e+06
1.20804e+06
1.0371e+06
902613
775672
647816
523309
407165
309329
235078
181818
144337
118552
100441
87441.1
78519.4
71816.6
66475.6
61541.3
57154.5
53472.2
50851.2
50277.8
57429.6
107309
1.15905e+07
6.52529e+06
4.55642e+06
3.05969e+06
2.10504e+06
1.59232e+06
1.30371e+06
1.12176e+06
982316
852531
720837
590026
464337
354585
267990
204080
159207
127266
104927
89355.1
79017.4
71646.2
65906.3
60948.3
56618.7
53164.7
50675.2
50323.5
57994.6
107642
1.23222e+07
7.0251e+06
4.93904e+06
3.32867e+06
2.29243e+06
1.72721e+06
1.41502e+06
1.22203e+06
1.076e+06
941292
804397
666538
531951
410431
309367
233881
179120
139358
111437
93040.5
80705
71988.9
65767.5
60689.4
56311.6
52900.4
50461
50446.9
58683.9
108113
1.31342e+07
7.53861e+06
5.35458e+06
3.64264e+06
2.50765e+06
1.88607e+06
1.54727e+06
1.33793e+06
1.18176e+06
1.03982e+06
896500
752618
610129
476582
361550
272115
204607
155496
121541
98645.6
83489.3
73015.2
66020.2
60579.9
56021
52598
50313.6
50608.6
59343.1
108722
1.39164e+07
8.08612e+06
5.81926e+06
4.0066e+06
2.76413e+06
2.07439e+06
1.701e+06
1.47009e+06
1.30016e+06
1.1489e+06
999586
850121
699521
554621
428078
320725
239393
178554
135594
106738
87734
74994.2
66579.1
60501.3
55771.2
52305
50255.8
50839.3
60197.9
109688
1.47266e+07
8.6697e+06
6.35014e+06
4.42595e+06
3.07133e+06
2.29993e+06
1.88255e+06
1.62346e+06
1.43654e+06
1.27437e+06
1.11829e+06
961553
802052
647115
507332
383615
284557
208591
154583
118090
93989.9
78151.9
67728.1
60738.5
55588
52039.3
50129.6
51100.1
61071.8
110856
1.55005e+07
9.28778e+06
6.93466e+06
4.90544e+06
3.43592e+06
2.57114e+06
2.09839e+06
1.80533e+06
1.59518e+06
1.41834e+06
1.25304e+06
1.08818e+06
920435
756040
600953
460325
341386
248070
180456
134300
103219
82710.3
69672.8
61322.5
55531.7
51836.5
50173.7
51430.2
61741.2
111994
1.63025e+07
9.90925e+06
7.57315e+06
5.44781e+06
3.86031e+06
2.89089e+06
2.35279e+06
2.01892e+06
1.77869e+06
1.58276e+06
1.40525e+06
1.23043e+06
1.05452e+06
878004
709686
551056
411998
299564
215442
156480
115885
89214.2
72563.9
62348.2
55724.6
51768.9
50132.8
51661.5
62534.5
113339
1.71517e+07
1.05657e+07
8.2647e+06
6.05006e+06
4.33966e+06
3.26628e+06
2.65567e+06
2.26961e+06
1.99154e+06
1.77009e+06
1.57576e+06
1.38861e+06
1.20249e+06
1.01521e+06
833095
658728
499031
365538
261663
185998
133099
98330.7
76922.7
64111.4
56341.7
52007.9
50174.2
52064.5
63385.8
114895
1.80966e+07
1.12664e+07
8.99911e+06
6.70425e+06
4.87616e+06
3.70117e+06
3.01302e+06
2.56369e+06
2.23734e+06
1.9832e+06
1.76666e+06
1.56376e+06
1.36511e+06
1.16662e+06
971799
782294
603726
447746
320940
224616
156156
110944
83225.9
66867.9
57540.9
52653.4
50441.5
52532.1
64251.8
116575
1.89748e+07
1.2013e+07
9.75552e+06
7.40514e+06
5.47414e+06
4.20609e+06
3.43357e+06
2.9092e+06
2.52176e+06
2.22607e+06
1.9808e+06
1.75773e+06
1.54439e+06
1.33525e+06
1.12794e+06
923751
727157
547452
395024
274582
186947
128307
92248.8
71069.4
59476.4
53234.5
50867.9
53102.7
65201.2
118582
1.9784e+07
1.27644e+07
1.05127e+07
8.14148e+06
6.14124e+06
4.79077e+06
3.92753e+06
3.31446e+06
2.85302e+06
2.50477e+06
2.22172e+06
1.97318e+06
1.74329e+06
1.52098e+06
1.30104e+06
1.08376e+06
868839
665824
486205
338854
228085
152309
105131
77179.7
61987.4
54280.9
51501.3
53958.7
66332.8
120882
2.04634e+07
1.34886e+07
1.12744e+07
8.90925e+06
6.88445e+06
5.46662e+06
4.50955e+06
3.79032e+06
3.24253e+06
2.82813e+06
2.49832e+06
2.21878e+06
1.96615e+06
1.72588e+06
1.49345e+06
1.26128e+06
1.02863e+06
803733
597123
420849
282912
185267
123189
86003.4
65922.7
55932.5
52424.1
54868.2
67679
123585
2.1229e+07
1.41111e+07
1.20271e+07
9.69893e+06
7.7e+06
6.24324e+06
5.19461e+06
4.34901e+06
3.70225e+06
3.21237e+06
2.82452e+06
2.50403e+06
2.21723e+06
1.95348e+06
1.70426e+06
1.45351e+06
1.20356e+06
958648
727193
522333
354097
229673
147761
98242.1
71291
58181.4
53595.8
55550.4
69282.4
126502
2.18478e+07
1.46799e+07
1.27536e+07
1.05177e+07
8.59092e+06
7.13608e+06
5.99088e+06
5.00873e+06
4.25233e+06
3.678e+06
3.21696e+06
2.83857e+06
2.50338e+06
2.20719e+06
1.93157e+06
1.65922e+06
1.39113e+06
1.1271e+06
873645
641712
442756
287627
180665
115046
78848.3
61343.1
54835.2
56397.7
70338.2
129366
2.23679e+07
1.50756e+07
1.33714e+07
1.13413e+07
9.55481e+06
8.15397e+06
6.91797e+06
5.79972e+06
4.92164e+06
4.24469e+06
3.69248e+06
3.23127e+06
2.83281e+06
2.49189e+06
2.18062e+06
1.88149e+06
1.59243e+06
1.30858e+06
1.03466e+06
776062
548111
360341
223681
137516
89070
65386.3
56380.7
57247.8
71055.9
132735
2.25658e+07
1.54613e+07
1.38473e+07
1.21203e+07
1.05768e+07
9.30322e+06
8.0076e+06
6.74914e+06
5.73555e+06
4.93528e+06
4.26775e+06
3.69883e+06
3.21841e+06
2.81724e+06
2.45962e+06
2.12564e+06
1.81034e+06
1.50412e+06
1.20925e+06
925831
668887
448554
278616
167026
102686
70498.6
58044.4
57759.4
71507.6
135732
2.28454e+07
1.56195e+07
1.41474e+07
1.28076e+07
1.16484e+07
1.05962e+07
9.29558e+06
7.89798e+06
6.73197e+06
5.78151e+06
4.96709e+06
4.26384e+06
3.67897e+06
3.19718e+06
2.77888e+06
2.39923e+06
2.04903e+06
1.71571e+06
1.39783e+06
1.09151e+06
805103
552574
347613
205759
120708
77077.4
59907.7
57988.2
71485.9
137976
2.28984e+07
1.58078e+07
1.42856e+07
1.33882e+07
1.27795e+07
1.20629e+07
1.08209e+07
9.2946e+06
7.95622e+06
6.82125e+06
5.81948e+06
4.95198e+06
4.23789e+06
3.65032e+06
3.1524e+06
2.71178e+06
2.31449e+06
1.94651e+06
1.60136e+06
1.27072e+06
955491
671202
432575
256418
145184
86497.9
62630.5
58426.4
71247.5
140199
2.31256e+07
1.57554e+07
1.42909e+07
1.39181e+07
1.39989e+07
1.37573e+07
1.26435e+07
1.09995e+07
9.46152e+06
8.0977e+06
6.86522e+06
5.79894e+06
4.91966e+06
4.19817e+06
3.59575e+06
3.0737e+06
2.61391e+06
2.20009e+06
1.81972e+06
1.46064e+06
1.11934e+06
803850
534561
322380
178699
99837.8
67074.4
59692.5
71487.7
142837
2.2617e+07
1.62815e+07
1.47462e+07
1.47861e+07
1.55321e+07
1.58015e+07
1.48476e+07
1.30882e+07
1.13153e+07
9.66897e+06
8.15032e+06
6.84052e+06
5.75469e+06
4.86207e+06
4.12296e+06
3.49559e+06
2.95468e+06
2.48061e+06
2.05475e+06
1.66094e+06
1.29393e+06
953909
652550
403461
222845
118257
73194.7
61604
72332.4
145730
2.09016e+07
2.12086e+07
1.79414e+07
1.70166e+07
1.78185e+07
1.83977e+07
1.75532e+07
1.56552e+07
1.36011e+07
1.16068e+07
9.73269e+06
8.11792e+06
6.77194e+06
5.66166e+06
4.74776e+06
3.98507e+06
3.34014e+06
2.78918e+06
2.30657e+06
1.87433e+06
1.47931e+06
1.11407e+06
782709
497546
278152
142337
81299.5
63959.1
73228.5
148383
107151
56438.4
50719.8
52278.7
55696.4
60191.9
65178.5
69995
75379.7
80735.7
86733.4
94331.1
105413
119868
140501
171082
217525
287138
384167
499872
627672
755392
884485
1.04082e+06
1.28811e+06
1.72457e+06
2.51206e+06
3.69034e+06
5.3112e+06
9.18368e+06
106531
56575.4
50570.4
51685.7
54971.2
59226.3
64155.3
69323.9
74521.6
80808.2
87749
97232.8
109710
127686
152928
189861
243405
320020
420821
536993
662212
786393
916195
1.07693e+06
1.33158e+06
1.78391e+06
2.61026e+06
3.86569e+06
5.62584e+06
1.02016e+07
106322
56794.1
50242.8
51140.3
54057.6
58169
62729.9
67820.1
72974.1
79369.7
87091.6
97637.2
112036
132850
163169
206831
268482
352524
457834
576017
702275
828168
960380
1.12548e+06
1.38653e+06
1.8544e+06
2.71408e+06
4.01793e+06
5.76784e+06
1.04247e+07
106284
57251.4
50194.4
50875.9
53632.7
57637.1
62055.1
66795.1
72346.8
79104
87780.4
99832.5
117099
141845
178214
230138
302175
396816
509244
631018
757239
885856
1.0217e+06
1.19596e+06
1.47322e+06
1.97263e+06
2.89117e+06
4.2939e+06
6.1399e+06
1.09595e+07
106434
57737.8
50232.5
50689.2
53466.5
57058.4
61457.3
66297.1
72110.6
79633.5
89722.8
104151
125010
155301
199176
260950
344550
451520
573541
701607
831062
961501
1.10314e+06
1.28924e+06
1.58884e+06
2.12925e+06
3.12585e+06
4.64275e+06
6.5935e+06
1.16301e+07
106941
58297
50367.5
50508.6
53195.8
56733.5
61006.5
66100.9
72350.2
80897.5
93081.7
110807
136492
173991
227494
301356
397810
516482
648917
784412
919189
1.05345e+06
1.20083e+06
1.39857e+06
1.72065e+06
2.31716e+06
3.39793e+06
5.02973e+06
7.09417e+06
1.2351e+07
107583
59021.3
50632.3
50485.4
52759
56559.8
60809.7
66156
73221.7
83345.4
98140.3
120087
152478
198755
262751
352806
463352
593677
734689
877342
1.01819e+06
1.1589e+06
1.31521e+06
1.52809e+06
1.87865e+06
2.535e+06
3.7102e+06
5.4536e+06
7.61303e+06
1.3161e+07
108632
59762.8
50924.5
50575
52584.2
56317.2
60791.3
66630.7
74888.1
87235.3
105719
133375
174013
232241
311170
415537
541676
683296
831425
979982
1.12801e+06
1.27755e+06
1.44728e+06
1.68122e+06
2.06588e+06
2.79185e+06
4.08472e+06
5.92677e+06
8.16934e+06
1.39545e+07
109959
60626.7
51255
50384.7
52516.8
55974.5
60954.7
67669
77640.3
93046.8
116516
151545
203322
275972
371874
491226
632558
785572
941260
1.09607e+06
1.25094e+06
1.41167e+06
1.59952e+06
1.86084e+06
2.28905e+06
3.09495e+06
4.50564e+06
6.46125e+06
8.76123e+06
1.47787e+07
111327
61362.9
51491.6
50306.9
52379.7
55942.8
61458
69457.9
81928.9
101597
131837
176425
241450
331666
446819
584289
738677
903412
1.06751e+06
1.22973e+06
1.39401e+06
1.56908e+06
1.77937e+06
2.07436e+06
2.55645e+06
3.45513e+06
4.98788e+06
7.05571e+06
9.39472e+06
1.55656e+07
112565
62113.7
51745.7
50354.4
52214
56153
62454.9
72316.6
88131.8
113600
152850
210064
291485
401077
537087
693758
862178
1.03775e+06
1.21067e+06
1.38126e+06
1.55655e+06
1.74925e+06
1.98862e+06
2.32506e+06
2.8727e+06
3.87708e+06
5.53213e+06
7.69919e+06
1.00349e+07
1.63875e+07
114050
63005.6
52140.8
50450.9
52355.7
56729.3
64137.3
76460.2
96816.1
129996
181040
254664
356093
487366
644991
819398
1.00238e+06
1.18813e+06
1.37133e+06
1.55306e+06
1.74309e+06
1.95888e+06
2.23399e+06
2.62176e+06
3.24193e+06
4.35843e+06
6.13961e+06
8.39614e+06
1.07061e+07
1.72778e+07
115679
63932.2
52599.5
50687.5
52684.3
57794
66749.2
82297.9
108956
152094
218104
312246
437143
591369
769082
959799
1.15758e+06
1.35503e+06
1.55046e+06
1.74713e+06
1.9563e+06
2.20168e+06
2.52128e+06
2.97206e+06
3.67456e+06
4.89768e+06
6.8081e+06
9.14614e+06
1.14225e+07
1.8245e+07
117780
65000.2
53210.3
51150.7
53335.5
59483.2
70577.9
90624.6
125340
181452
266155
384394
535264
713687
910275
1.11562e+06
1.32626e+06
1.53625e+06
1.74711e+06
1.96416e+06
2.20065e+06
2.48461e+06
2.85928e+06
3.38304e+06
4.17374e+06
5.49538e+06
7.51734e+06
9.92302e+06
1.21867e+07
1.91746e+07
120332
66313
54079.7
51921.3
54413.1
61872.7
76070.1
102218
147323
219940
327418
472475
650701
853037
1.06861e+06
1.28835e+06
1.51021e+06
1.73382e+06
1.96246e+06
2.20621e+06
2.47947e+06
2.81471e+06
3.25911e+06
3.86764e+06
4.75104e+06
6.15723e+06
8.25708e+06
1.06939e+07
1.29603e+07
2.0051e+07
122801
67578.6
54901.4
52770.1
56096.6
65151.6
83580.2
118028
176999
270288
404703
578470
783725
1.0088e+06
1.24257e+06
1.47798e+06
1.7128e+06
1.95202e+06
2.20396e+06
2.47933e+06
2.80067e+06
3.20139e+06
3.73115e+06
4.44372e+06
5.41694e+06
6.89364e+06
9.02441e+06
1.14663e+07
1.37189e+07
2.0786e+07
125329
68865.2
55776.4
53749
58039.6
69630.2
93869.1
139363
216444
335345
499740
702621
932994
1.17864e+06
1.42971e+06
1.68264e+06
1.93629e+06
2.19506e+06
2.48035e+06
2.79691e+06
3.17725e+06
3.65746e+06
4.28854e+06
5.12206e+06
6.1864e+06
7.70414e+06
9.80557e+06
1.2231e+07
1.43825e+07
2.16062e+07
127837
69928.1
56613.6
54864.7
60473.3
75723.5
107905
167907
267885
416591
611653
842105
1.09531e+06
1.35943e+06
1.62851e+06
1.90168e+06
2.18068e+06
2.47006e+06
2.80241e+06
3.17859e+06
3.63162e+06
4.19662e+06
4.93764e+06
5.9107e+06
7.07515e+06
8.58555e+06
1.06114e+07
1.29703e+07
1.49884e+07
2.23179e+07
130213
70498.6
57194.4
56048.5
63548.5
83873.4
126669
205240
332685
513501
737587
993810
1.26843e+06
1.55171e+06
1.84157e+06
2.14067e+06
2.45349e+06
2.78699e+06
3.18038e+06
3.63833e+06
4.18432e+06
4.85085e+06
5.71328e+06
6.82961e+06
8.09031e+06
9.54163e+06
1.14262e+07
1.36057e+07
1.54223e+07
2.28921e+07
132477
70817.2
57250.9
57285.4
67446
94693.9
151367
252838
411607
624363
876093
1.15695e+06
1.4525e+06
1.75842e+06
2.07527e+06
2.40925e+06
2.76634e+06
3.16041e+06
3.6315e+06
4.19622e+06
4.85943e+06
5.64778e+06
6.64479e+06
7.90718e+06
9.23636e+06
1.05681e+07
1.22107e+07
1.41023e+07
1.58411e+07
2.31795e+07
135460
70683.3
57541.3
58976.3
72720
109115
183592
311990
504611
748222
1.02823e+06
1.33208e+06
1.64965e+06
1.98343e+06
2.33657e+06
2.71837e+06
3.13249e+06
3.60817e+06
4.17891e+06
4.87562e+06
5.68571e+06
6.62434e+06
7.77388e+06
9.17938e+06
1.05269e+07
1.16509e+07
1.29139e+07
1.44148e+07
1.60264e+07
2.35266e+07
138633
71104.6
58440.6
61593.8
80442.6
128850
225883
385939
611063
883764
1.19211e+06
1.52057e+06
1.86514e+06
2.23382e+06
2.63458e+06
3.07915e+06
3.57158e+06
4.1521e+06
4.84875e+06
5.70631e+06
6.70077e+06
7.82575e+06
9.15173e+06
1.06889e+07
1.19959e+07
1.28062e+07
1.3518e+07
1.45592e+07
1.62404e+07
2.3636e+07
141133
71918.1
59780.3
65106.3
91206.1
155773
280696
475182
730734
1.03111e+06
1.36526e+06
1.72126e+06
2.1015e+06
2.51683e+06
2.98075e+06
3.50708e+06
4.10383e+06
4.81689e+06
5.67501e+06
6.72415e+06
7.94783e+06
9.30765e+06
1.08344e+07
1.2495e+07
1.36993e+07
1.40526e+07
1.40769e+07
1.45825e+07
1.61978e+07
2.39345e+07
143921
72661
61384.7
69970.2
105488
191367
349485
579600
864994
1.19268e+06
1.55151e+06
1.93976e+06
2.36305e+06
2.8398e+06
3.38578e+06
4.0185e+06
4.75194e+06
5.63345e+06
6.69159e+06
7.97708e+06
9.48442e+06
1.11299e+07
1.28959e+07
1.46909e+07
1.57604e+07
1.56216e+07
1.49872e+07
1.50723e+07
1.67403e+07
2.34425e+07
146332
73217.5
63169.3
76081.2
124085
236503
431078
696285
1.01135e+06
1.36649e+06
1.75465e+06
2.1821e+06
2.66073e+06
3.21371e+06
3.86265e+06
4.63169e+06
5.53756e+06
6.6314e+06
7.94499e+06
9.52311e+06
1.13822e+07
1.33779e+07
1.54353e+07
1.73977e+07
1.83886e+07
1.79587e+07
1.72784e+07
1.83073e+07
2.17012e+07
2.17033e+07
3.61819e+07