/*--------------------------------*- C++ -*----------------------------------*\
| =========                 |                                                 |
| \\      /  F ield         | OpenFOAM: The Open Source CFD Toolbox           |
|  \\    /   O peration     | Version:  2112                                  |
|   \\  /    A nd           | Website:  www.openfoam.com                      |
|    \\/     M anipulation  |                                                 |
\*---------------------------------------------------------------------------*/
FoamFile
{
    version     2.0;
    format      ascii;
    arch        "LSB;label=32;scalar=64";
    class       volScalarField;
    location    "0.00884";
    object      nut;
}
// * * * * * * * * * * * * * * * * * * * * * * * * * * * * * * * * * * * * * //

dimensions      [0 2 -1 0 0 0 0];

internalField   nonuniform List<scalar> 
13875
(
0.0511677
0.0366256
0.0343675
0.0343314
0.0343012
0.034336
0.0342863
0.0342496
0.0342992
0.0343197
0.0342901
0.0342886
0.0343211
0.0343414
0.0343303
0.0342934
0.0342676
0.0342894
0.0343024
0.0343265
0.0343038
0.0343343
0.0343815
0.0365647
0.0514333
0.0532618
0.0341201
0.0322237
0.0321086
0.032063
0.0320856
0.0320298
0.0319995
0.0320391
0.0320539
0.0320292
0.0320424
0.0320534
0.0320724
0.0320603
0.032047
0.0320037
0.0320342
0.032046
0.0320759
0.0320636
0.0321024
0.032228
0.0340541
0.053643
0.0564568
0.0335618
0.0318038
0.0315942
0.0315685
0.0315809
0.0314702
0.0314228
0.031451
0.0314548
0.0314294
0.0314588
0.03153
0.0315559
0.0315345
0.0314645
0.0314079
0.0314449
0.031478
0.0315676
0.0315644
0.0315802
0.0317945
0.0334958
0.0565976
0.0590705
0.0332327
0.03149
0.0312774
0.0312611
0.0312649
0.0311439
0.0310902
0.0311187
0.0311168
0.0310852
0.0311103
0.0312131
0.03124
0.0312182
0.0311166
0.0310727
0.0311022
0.0311464
0.0312539
0.0312553
0.0312625
0.031485
0.0331706
0.0591441
0.0611261
0.0330039
0.0312464
0.0310028
0.0309837
0.0309815
0.030856
0.0308057
0.0308328
0.0308293
0.0307973
0.0308202
0.0309244
0.0309546
0.0309298
0.030827
0.0307862
0.0308145
0.0308593
0.0309687
0.0309767
0.0309898
0.0312305
0.03292
0.0612545
0.062819
0.0328481
0.0310892
0.0307705
0.0307514
0.0307319
0.0305964
0.0305473
0.0305707
0.0305653
0.0305354
0.0305555
0.0306619
0.0306948
0.0306677
0.0305624
0.0305258
0.0305531
0.0305998
0.03072
0.0307436
0.0307612
0.0310593
0.0328225
0.0629698
0.0648277
0.0330732
0.0311035
0.0306313
0.030568
0.0305241
0.0303688
0.030316
0.0303348
0.0303259
0.030299
0.0303167
0.030426
0.0304587
0.0304287
0.0303218
0.0302927
0.0303203
0.0303761
0.0305121
0.03056
0.0306333
0.0311137
0.0330702
0.064865
0.0670944
0.0339366
0.0314245
0.0306479
0.030484
0.0303721
0.030187
0.0301183
0.0301263
0.030114
0.0300911
0.0301034
0.0302173
0.030252
0.0302192
0.0301079
0.0300889
0.0301205
0.0301897
0.0303572
0.0304672
0.0306299
0.0313928
0.0338962
0.0673609
0.0736469
0.0362965
0.03204
0.0308437
0.0304731
0.0302806
0.0300449
0.0299606
0.0299578
0.0299383
0.029921
0.0299283
0.0300466
0.0300833
0.0300499
0.0299352
0.0299228
0.029958
0.0300439
0.0302596
0.0304502
0.0308023
0.0319357
0.0360005
0.074196
0.0829025
0.0384711
0.0327356
0.031188
0.0305796
0.0302435
0.02997
0.0298765
0.0298608
0.0298337
0.0298224
0.0298264
0.0299447
0.0299826
0.0299511
0.0298475
0.0298328
0.0298727
0.0299652
0.0302199
0.0305501
0.0310808
0.0326235
0.0381056
0.0835494
0.0907191
0.0441337
0.0346465
0.0319944
0.0308187
0.0303602
0.0300406
0.0299071
0.0298682
0.0298334
0.0298216
0.0298237
0.0299369
0.0299757
0.0299525
0.0298735
0.0298567
0.0299037
0.0300353
0.0303036
0.030794
0.0318811
0.0343626
0.0432647
0.0893487
0.095045
0.0545151
0.0403801
0.0334574
0.0318734
0.0308344
0.0303294
0.0301362
0.030055
0.0300088
0.0299901
0.0299945
0.0300925
0.0301342
0.0301238
0.030074
0.0300653
0.0301374
0.0303217
0.0308358
0.0317988
0.0332275
0.0398472
0.0533658
0.0942587
0.086588
0.0687078
0.0516447
0.0418132
0.0343988
0.0319489
0.0312806
0.0308221
0.0306351
0.030544
0.0305018
0.0305011
0.0305762
0.0306202
0.0306314
0.030626
0.0306782
0.0308713
0.0313313
0.032004
0.0347652
0.0415786
0.0509515
0.0687615
0.0866009
0.0795847
0.0659286
0.0581585
0.0657014
0.0417176
0.037189
0.0336391
0.032432
0.0320311
0.0319703
0.0319326
0.0319335
0.0319974
0.032041
0.0320677
0.0320939
0.0321424
0.0325357
0.0340804
0.0382639
0.0432121
0.0657197
0.0578368
0.0661703
0.0816095
0.0753107
0.0642925
0.0565726
0.0606069
0.0562769
0.0538844
0.0443487
0.038813
0.0367063
0.0358709
0.0354949
0.0353815
0.0354028
0.0354583
0.0355687
0.0358679
0.03667
0.0389036
0.0451786
0.0552411
0.0557324
0.0612535
0.0566027
0.064151
0.0746617
0.0671525
0.061859
0.0542985
0.057247
0.0561201
0.0572134
0.0544373
0.0531045
0.0507324
0.0482757
0.0474496
0.0471192
0.0470342
0.0471109
0.0472735
0.0477723
0.0504344
0.0542777
0.0554552
0.057716
0.0556077
0.0580124
0.0543144
0.0614956
0.0664782
0.0623911
0.0582096
0.0524687
0.055031
0.0568566
0.0612042
0.0680915
0.0728197
0.0699587
0.0707112
0.0730332
0.0745111
0.0752734
0.0749535
0.0734123
0.0725771
0.0700349
0.0728639
0.0686872
0.0611814
0.0562883
0.0553002
0.051963
0.0575742
0.0624355
0.0569891
0.054692
0.053083
0.0568727
0.0598975
0.0629369
0.0709603
0.079119
0.0742917
0.070386
0.069261
0.0693682
0.0698939
0.0696194
0.0697746
0.0726323
0.073909
0.076735
0.0708541
0.0641886
0.0609499
0.0576447
0.0528158
0.0542618
0.056787
0.0513532
0.0541354
0.055835
0.0617206
0.066775
0.0647343
0.0674253
0.0752231
0.0743064
0.0704729
0.0687218
0.0683538
0.0684509
0.0689373
0.069836
0.071735
0.0728701
0.0731175
0.0677213
0.0667276
0.0696959
0.0630098
0.0562379
0.0543991
0.0521519
0.0493319
0.0572854
0.0603019
0.0656442
0.0685788
0.0644903
0.0639566
0.0695568
0.0718526
0.0704656
0.0687487
0.0672336
0.0665143
0.0680753
0.0700477
0.0709904
0.0699273
0.067812
0.0645407
0.0665462
0.070762
0.0664418
0.0608532
0.057622
0.0487723
0.0774164
0.0885655
0.0772801
0.0652631
0.0649051
0.0615348
0.0607253
0.0655578
0.0693819
0.0695039
0.0677154
0.0652584
0.0640792
0.0664019
0.0690841
0.0695412
0.0672376
0.0640923
0.0614532
0.0634646
0.0667688
0.0669198
0.0798639
0.0918475
0.0824825
0.1282
0.161019
0.0897695
0.0619831
0.0607914
0.0585383
0.058062
0.0625685
0.0669692
0.0678629
0.0659602
0.0628674
0.0614148
0.0641354
0.0673098
0.0676343
0.0647668
0.0613682
0.0587114
0.0602056
0.0623136
0.0637975
0.0930652
0.165253
0.134579
0.15227
0.14423
0.083925
0.0591411
0.0574638
0.0559792
0.055693
0.0601207
0.0646715
0.0658479
0.0637789
0.0603528
0.0586998
0.061547
0.0650756
0.0655429
0.0624719
0.0590857
0.0562279
0.0572836
0.0586638
0.0606805
0.0837804
0.14375
0.153177
0.160747
0.144726
0.0765542
0.0569866
0.0546909
0.0536509
0.0536439
0.0578842
0.0624438
0.0636581
0.0613505
0.0577328
0.0561161
0.0590029
0.0627465
0.0634448
0.0602256
0.0568361
0.0541518
0.0548081
0.0558581
0.0585461
0.0776134
0.150308
0.160436
0.166461
0.145758
0.0725416
0.0554293
0.0526407
0.0516797
0.0519782
0.0559143
0.0602655
0.0613887
0.0589867
0.0553039
0.0537232
0.0565772
0.0604488
0.0612587
0.0581383
0.0548335
0.0523633
0.0527049
0.0538213
0.0569938
0.074377
0.154527
0.167115
0.173636
0.149753
0.0698683
0.0539462
0.0510368
0.0500056
0.0506162
0.0541928
0.0581838
0.0591473
0.0567466
0.0530752
0.0515236
0.0542722
0.0581103
0.0590488
0.0562118
0.0530687
0.0507799
0.0508079
0.0521461
0.0553196
0.071478
0.157154
0.176813
0.183331
0.145993
0.0666985
0.0525277
0.0497877
0.0486403
0.049472
0.0526844
0.0561659
0.0568387
0.054484
0.0509976
0.0495361
0.0522302
0.0559925
0.0569669
0.054459
0.0515291
0.0494141
0.0492902
0.0509088
0.0539867
0.0689905
0.155264
0.18414
0.189121
0.145287
0.0648405
0.0514536
0.0488218
0.0475755
0.0484715
0.0513219
0.0543172
0.0547471
0.0524797
0.0491426
0.0477265
0.0503029
0.0539092
0.0549652
0.0528536
0.0501891
0.04826
0.0480927
0.0498076
0.0527795
0.0671935
0.155558
0.191806
0.194209
0.147216
0.0637317
0.0505759
0.0480327
0.0468184
0.0476032
0.0500848
0.0526101
0.052807
0.0506502
0.0474785
0.0460917
0.0485228
0.0519158
0.0530123
0.0513465
0.0489924
0.0472593
0.0471204
0.0488071
0.0517132
0.0652852
0.150617
0.199894
0.201135
0.144427
0.0627807
0.0498689
0.0472443
0.0462168
0.0469393
0.0489771
0.0509611
0.0508891
0.0488418
0.0459072
0.0446096
0.0469842
0.0502356
0.0513293
0.049976
0.0479202
0.0464323
0.0463498
0.0478973
0.0509388
0.0645661
0.151162
0.203439
0.203321
0.140642
0.0622307
0.0494509
0.0465571
0.0456494
0.0463173
0.0479608
0.0494938
0.0492216
0.0472935
0.0445327
0.043276
0.0455256
0.0485814
0.049677
0.0487056
0.047
0.0457672
0.0456714
0.0470171
0.0503277
0.0636498
0.146251
0.208605
0.205782
0.140411
0.062161
0.0493321
0.0459343
0.0450783
0.0457305
0.0470532
0.0481872
0.0477506
0.0459167
0.0432903
0.0420702
0.0441883
0.0470961
0.048228
0.0475516
0.0461684
0.0451362
0.0449971
0.04624
0.0500034
0.0630819
0.143126
0.211207
0.209922
0.136083
0.0618508
0.0494023
0.0454582
0.0446064
0.0451343
0.0461923
0.0469159
0.0463237
0.044586
0.0421366
0.0409886
0.0430408
0.0458123
0.0469228
0.0464994
0.0454096
0.0445069
0.0444156
0.0456523
0.0499429
0.0630623
0.142193
0.213247
0.211021
0.133834
0.0616849
0.0497
0.0451614
0.0441723
0.0444964
0.0453935
0.0457982
0.0450963
0.0434472
0.0411107
0.0400017
0.0419339
0.0445874
0.0457238
0.0455195
0.0447119
0.0438946
0.0438918
0.0452313
0.0500566
0.0631325
0.138541
0.215847
0.212054
0.13348
0.0613927
0.0500726
0.0452097
0.043776
0.0439125
0.0446163
0.0447797
0.0439761
0.042409
0.0401822
0.0391181
0.0409469
0.0434671
0.0446096
0.0445992
0.0440195
0.0433256
0.0434988
0.0451282
0.0503878
0.0627891
0.136476
0.216591
0.214183
0.131609
0.0610012
0.0504529
0.0454626
0.0434691
0.0433617
0.0438396
0.0438147
0.0429391
0.0414225
0.0393091
0.038304
0.0400651
0.042518
0.0436573
0.0437605
0.0433274
0.0428106
0.043142
0.0453355
0.0508634
0.0626124
0.137176
0.217327
0.214514
0.131687
0.0608252
0.0512527
0.045936
0.0432922
0.0428907
0.0431087
0.0429166
0.0420163
0.0405615
0.0385386
0.0375726
0.0392327
0.0415817
0.0427183
0.0429447
0.0426815
0.0423409
0.0429075
0.0457273
0.0515937
0.0622278
0.136135
0.218638
0.214529
0.134016
0.0606859
0.0520261
0.0465634
0.0433328
0.0424392
0.0424283
0.0420936
0.0411852
0.0397885
0.0378323
0.0369007
0.0384671
0.0407465
0.0418782
0.0421665
0.0420813
0.041902
0.0429121
0.0463807
0.0523877
0.0618085
0.13705
0.218446
0.214969
0.133929
0.0601336
0.0522275
0.0474206
0.0435947
0.0421124
0.0418181
0.0413059
0.0403784
0.0390326
0.037173
0.0362953
0.0378062
0.0400047
0.0411042
0.0414652
0.0415442
0.041565
0.043108
0.0472832
0.0527784
0.0613486
0.139409
0.218129
0.21413
0.135893
0.0596322
0.0522197
0.0485307
0.044039
0.041942
0.0412943
0.0406223
0.0396765
0.0383782
0.0365738
0.0357309
0.037157
0.0392914
0.0403828
0.0408007
0.0410866
0.0414222
0.0435313
0.0482293
0.0526481
0.0607769
0.139976
0.218128
0.213622
0.13841
0.0594372
0.052109
0.0499007
0.0447251
0.041978
0.0409244
0.0400244
0.0390317
0.0377655
0.03602
0.035218
0.0365718
0.0386202
0.0397124
0.0402331
0.0407524
0.0415011
0.0441558
0.0498382
0.0525177
0.0603635
0.141791
0.2172
0.213754
0.140161
0.0591493
0.0516908
0.0505491
0.0455913
0.0421575
0.0407555
0.0395338
0.0384408
0.0371818
0.0354923
0.0347346
0.0360389
0.0380518
0.0391413
0.0397688
0.04057
0.0416778
0.0451077
0.0509475
0.0523128
0.0607912
0.1445
0.216643
0.213001
0.142346
0.0591306
0.0511487
0.0505474
0.0469949
0.0425539
0.040746
0.0391969
0.0379366
0.0366636
0.0350178
0.0342919
0.0355269
0.0374799
0.0386044
0.0394156
0.0405759
0.0420623
0.0463103
0.0509751
0.0517345
0.0606825
0.146543
0.216489
0.212465
0.144637
0.060125
0.0506418
0.0501815
0.0486443
0.0432783
0.0408291
0.0390435
0.0375579
0.0362154
0.0345771
0.0338747
0.0350518
0.0369767
0.0381653
0.0392171
0.0406943
0.0428152
0.0482723
0.0506445
0.0511682
0.0612349
0.148767
0.215742
0.212233
0.146606
0.0601124
0.0501023
0.0495886
0.0494433
0.0445671
0.0411054
0.038986
0.0373122
0.0358218
0.0341773
0.0335027
0.0346443
0.0365696
0.0378733
0.0391685
0.0409957
0.044252
0.0494711
0.050096
0.0508285
0.0626468
0.150687
0.215087
0.211323
0.148425
0.061247
0.0498017
0.0488998
0.0491488
0.0467312
0.0418122
0.0390698
0.0372377
0.0356011
0.0338724
0.033188
0.0343038
0.0362956
0.0377552
0.0392137
0.041627
0.0463162
0.0492656
0.0494082
0.0504141
0.0630899
0.152359
0.214622
0.210261
0.150315
0.0627886
0.0497125
0.0483148
0.0486705
0.0479841
0.0434566
0.0393211
0.0372062
0.0355089
0.0337081
0.0329311
0.0341056
0.0361662
0.0377201
0.0394072
0.0431411
0.0478836
0.0487925
0.0487682
0.0501575
0.0636676
0.154149
0.213486
0.208253
0.151395
0.0634574
0.049611
0.0478294
0.0480318
0.0477174
0.0457615
0.0401314
0.0372585
0.0354722
0.0336438
0.0328031
0.0340338
0.0361368
0.0377776
0.0401692
0.0454877
0.0478621
0.0481366
0.0482541
0.050156
0.0651302
0.155645
0.211153
0.204891
0.151455
0.0643631
0.04968
0.0474466
0.0473375
0.0472815
0.0472832
0.0419155
0.037568
0.0355077
0.0336429
0.0328001
0.0340209
0.0361444
0.0380214
0.0417869
0.0473668
0.0474448
0.0473824
0.0477899
0.0501184
0.065719
0.156014
0.20783
0.196012
0.148331
0.0651414
0.0497714
0.0471526
0.0467472
0.0467363
0.0470933
0.0445334
0.038694
0.0357186
0.0336778
0.032823
0.0340376
0.0363015
0.0389609
0.0444164
0.0474833
0.0469125
0.046764
0.0474049
0.0501185
0.0660803
0.15291
0.199007
0.353735
1.34066
1.71239
1.72439
1.63341
1.51286
1.38333
1.2284
1.06506
0.900737
0.745552
0.616261
0.524836
0.466823
0.433372
0.415293
0.404078
0.395962
0.389485
0.38232
0.373408
0.362514
0.349854
0.335236
0.318185
0.297858
0.27206
0.236463
0.181611
0.113345
0.338834
1.42006
1.80071
1.81025
1.70724
1.58042
1.44206
1.28339
1.11366
0.939483
0.776619
0.640415
0.542266
0.478318
0.439473
0.416831
0.402525
0.392151
0.383899
0.375699
0.366216
0.355233
0.342773
0.328482
0.311661
0.291635
0.266249
0.231032
0.177162
0.111767
0.361967
1.56828
1.89335
1.88454
1.76579
1.62906
1.48266
1.32479
1.15379
0.977447
0.810955
0.669214
0.56344
0.492627
0.447637
0.419983
0.402012
0.389115
0.3789
0.369411
0.359303
0.34823
0.336111
0.322115
0.305687
0.286074
0.261013
0.22615
0.173227
0.110606
0.382596
1.65613
1.99413
1.97257
1.83619
1.68528
1.53212
1.37443
1.20325
1.02603
0.853724
0.705097
0.591461
0.511267
0.458657
0.425182
0.403224
0.387623
0.375277
0.364616
0.353818
0.342737
0.330731
0.316907
0.300814
0.281324
0.256568
0.221986
0.169785
0.109641
0.392173
1.73623
2.09884
2.06108
1.9044
1.73896
1.57878
1.41891
1.24986
1.07732
0.90252
0.747491
0.62442
0.53391
0.472358
0.432135
0.405592
0.386962
0.373116
0.361154
0.349509
0.338386
0.326425
0.312673
0.29661
0.277168
0.252692
0.218379
0.16686
0.108872
0.400838
1.82975
2.20956
2.15169
1.9721
1.79147
1.62408
1.46047
1.29404
1.12635
0.952211
0.79285
0.66061
0.55937
0.488181
0.440627
0.409302
0.388167
0.371871
0.358354
0.346501
0.335229
0.323138
0.309333
0.293165
0.273547
0.249121
0.214949
0.164075
0.108165
0.411137
1.92592
2.3187
2.2405
2.0391
1.84502
1.66975
1.50295
1.33867
1.1742
1.00183
0.840893
0.700521
0.588029
0.506578
0.451288
0.414693
0.389953
0.371437
0.356843
0.344535
0.332815
0.320494
0.306489
0.290076
0.27034
0.245769
0.21153
0.161431
0.107407
0.421964
2.02434
2.42663
2.33354
2.10813
1.89906
1.71593
1.54769
1.38546
1.22213
1.05268
0.890789
0.743561
0.620451
0.528377
0.464443
0.421832
0.393046
0.37247
0.35652
0.343374
0.330988
0.318327
0.304
0.287273
0.267455
0.242624
0.208294
0.158455
0.106505
0.432908
2.12002
2.53556
2.42708
2.17974
1.95686
1.7674
1.59858
1.43764
1.27416
1.10689
0.944255
0.791212
0.658723
0.555033
0.48099
0.431262
0.398
0.374799
0.357089
0.342737
0.329622
0.316396
0.301661
0.284704
0.264793
0.239616
0.204773
0.155543
0.105654
0.442239
2.21256
2.64418
2.52372
2.25722
2.02092
1.82684
1.65667
1.49713
1.33232
1.16664
1.00251
0.84523
0.703867
0.587848
0.502327
0.443909
0.40511
0.378363
0.358421
0.342468
0.328539
0.314676
0.299523
0.282552
0.26233
0.236788
0.201359
0.152838
0.104923
0.450676
2.29921
2.75116
2.62341
2.3418
2.09323
1.89551
1.72416
1.56365
1.39862
1.23399
1.0693
0.90879
0.758321
0.629037
0.530299
0.461072
0.414937
0.383501
0.360836
0.34278
0.328218
0.313669
0.297903
0.28074
0.260046
0.23393
0.198313
0.150386
0.104333
0.458869
2.38202
2.85649
2.72709
2.43463
2.17589
1.97463
1.80175
1.63809
1.47419
1.31071
1.14553
0.981412
0.823126
0.681084
0.567282
0.484573
0.42867
0.391039
0.364509
0.344521
0.327948
0.312672
0.296775
0.279068
0.257863
0.23124
0.195577
0.148224
0.103856
0.467992
2.46525
2.9615
2.83448
2.53593
2.26962
2.06457
1.88978
1.72145
1.55856
1.39691
1.23206
1.06491
0.899763
0.745811
0.615773
0.516811
0.448057
0.401832
0.370237
0.347398
0.328772
0.312193
0.295852
0.277565
0.255864
0.228889
0.192982
0.146203
0.103463
0.476744
2.54974
3.06627
2.94184
2.64198
2.3727
2.16579
1.98789
1.81467
1.65188
1.4928
1.32896
1.16011
0.988946
0.824456
0.677806
0.560357
0.475157
0.417181
0.378498
0.351507
0.330213
0.312153
0.294846
0.276311
0.254152
0.226602
0.190351
0.144188
0.103142
0.48449
2.6321
3.16781
3.04965
2.75149
2.48357
2.27519
2.09237
1.91652
1.75515
1.59861
1.4357
1.26601
1.0902
0.917006
0.754975
0.617627
0.51264
0.439046
0.390388
0.357103
0.33252
0.312785
0.294187
0.274983
0.252175
0.224301
0.187831
0.142337
0.10292
0.490614
2.70523
3.26144
3.15555
2.86812
2.60218
2.39098
2.20123
2.02421
1.86713
1.71376
1.55241
1.38228
1.20437
1.02371
0.848399
0.691002
0.563497
0.470078
0.407666
0.365727
0.336867
0.314202
0.294155
0.273479
0.250223
0.22209
0.185537
0.140819
0.102821
0.496481
2.76779
3.34374
3.25833
2.98675
2.72731
2.51432
2.31601
2.14176
1.98978
1.83979
1.68015
1.50975
1.33062
1.14434
0.957474
0.781736
0.63015
0.5133
0.432066
0.378773
0.343282
0.31669
0.294397
0.272616
0.248723
0.220235
0.183634
0.139695
0.102848
0.501187
2.81851
3.41522
3.35467
3.10568
2.85554
2.64131
2.44075
2.27037
2.12308
1.97586
1.81773
1.64765
1.46819
1.27774
1.0818
0.889244
0.714046
0.570998
0.46651
0.397435
0.352452
0.320742
0.29574
0.272554
0.247915
0.218975
0.182283
0.138923
0.102926
0.50735
2.85159
3.47309
3.43874
3.21918
2.98626
2.77472
2.57524
2.40812
2.26443
2.12009
1.96418
1.79507
1.6153
1.42177
1.21869
1.01187
0.814921
0.644547
0.512943
0.42322
0.365471
0.326856
0.298352
0.273463
0.247821
0.218284
0.181593
0.138458
0.103068
0.509437
2.87131
3.50848
3.50853
3.32273
3.11654
2.91337
2.71778
2.55488
2.41389
2.27213
2.119
1.95138
1.77137
1.57523
1.36581
1.14689
0.930587
0.734094
0.57334
0.458371
0.383754
0.335384
0.301774
0.274671
0.24799
0.217884
0.181174
0.138017
0.103266
0.513578
2.86383
3.5102
3.5541
3.41166
3.24333
3.05624
2.86756
2.71018
2.57238
2.433
2.28245
2.11742
1.93788
1.73971
1.52341
1.29299
1.05961
0.83964
0.649632
0.506086
0.40939
0.347311
0.306418
0.276033
0.247978
0.217374
0.180572
0.137339
0.103492
0.515167
2.83559
3.47229
3.56819
3.48509
3.36425
3.20185
3.02503
2.87466
2.74047
2.60466
2.45706
2.29438
2.11546
1.91446
1.69099
1.4494
1.20155
0.96086
0.743319
0.569568
0.445216
0.364808
0.313961
0.278793
0.248567
0.216962
0.179761
0.136504
0.103697
0.518837
2.76068
3.37822
3.53507
3.53625
3.47528
3.34792
3.18965
3.04898
2.91954
2.78705
2.64339
2.48081
2.2994
2.09246
1.86241
1.61251
1.35315
1.09542
0.854483
0.649518
0.493763
0.389893
0.325261
0.283315
0.250112
0.217113
0.179094
0.135721
0.10388
0.517214
2.58794
3.18095
3.43317
3.55817
3.57389
3.49231
3.35981
3.23139
3.10719
2.97755
2.8365
2.67069
2.4812
2.26492
2.03131
1.77754
1.51091
1.24036
0.980085
0.744748
0.556024
0.42372
0.340777
0.28969
0.252549
0.217782
0.178666
0.135008
0.104012
0.504575
2.07071
2.73668
3.21693
3.53169
3.65158
3.63
3.53211
3.41941
3.30057
3.17091
3.02939
2.85758
2.66129
2.44185
2.20518
1.94929
1.67547
1.39432
1.11525
0.853098
0.630642
0.466677
0.360795
0.29782
0.255755
0.218658
0.178285
0.134335
0.104101
0.113006
0.180869
0.235663
0.271329
0.296885
0.317453
0.33455
0.349017
0.36163
0.372292
0.380822
0.38765
0.394351
0.402801
0.415198
0.436172
0.473775
0.53873
0.640619
0.779883
0.942451
1.11574
1.28739
1.44628
1.58026
1.70533
1.79959
1.78078
1.38376
0.360667
0.111442
0.176478
0.230339
0.265643
0.290887
0.311102
0.327876
0.342141
0.354535
0.365191
0.374192
0.3822
0.390663
0.401669
0.417341
0.44228
0.485175
0.55674
0.664596
0.810193
0.98096
1.16301
1.3398
1.5016
1.64463
1.77741
1.88554
1.87142
1.46554
0.345393
0.110293
0.17262
0.225621
0.26058
0.285482
0.305226
0.321656
0.335549
0.347778
0.358611
0.36863
0.378069
0.387985
0.401548
0.420802
0.450702
0.499976
0.578276
0.692197
0.842916
1.0166
1.19928
1.37494
1.53579
1.68792
1.83237
1.95846
1.96537
1.61747
0.368662
0.109308
0.169259
0.221588
0.25636
0.281099
0.300634
0.316771
0.330347
0.342449
0.353437
0.364083
0.374846
0.387577
0.403381
0.426604
0.462309
0.518888
0.605477
0.727013
0.883547
1.06328
1.24321
1.4159
1.57706
1.73776
1.89824
2.04421
2.06617
1.70649
0.389578
0.108493
0.166364
0.217991
0.252646
0.277331
0.296778
0.312753
0.326145
0.338114
0.349354
0.36056
0.372602
0.387409
0.40655
0.434223
0.476435
0.5414
0.637346
0.767087
0.929487
1.1092
1.28406
1.45408
1.6177
1.78599
1.96307
2.13085
2.16993
1.78669
0.398791
0.107717
0.163609
0.214496
0.249129
0.273933
0.293557
0.309533
0.323027
0.33502
0.346544
0.358303
0.37162
0.388344
0.410825
0.443185
0.492174
0.565923
0.671227
0.809561
0.974082
1.1523
1.32232
1.48995
1.65712
1.83268
2.02554
2.21836
2.27929
1.88013
0.406963
0.107028
0.161026
0.21105
0.245706
0.270761
0.290741
0.306854
0.320487
0.332791
0.344672
0.357077
0.371725
0.390508
0.416342
0.453773
0.510155
0.593191
0.708202
0.853164
1.0178
1.19323
1.35996
1.52686
1.69719
1.8804
2.08856
2.30346
2.38657
1.97608
0.417615
0.106258
0.158098
0.207957
0.242489
0.26783
0.28804
0.304559
0.318486
0.331335
0.343929
0.357181
0.373013
0.394086
0.423543
0.46662
0.530973
0.623877
0.748135
0.89762
1.06259
1.2353
1.40082
1.56601
1.73847
1.93045
2.15368
2.39358
2.49342
2.07406
0.427747
0.105509
0.155247
0.204523
0.239618
0.265188
0.285487
0.302468
0.316909
0.329829
0.343186
0.35763
0.375398
0.399062
0.432608
0.482262
0.555842
0.659304
0.79223
0.945792
1.11115
1.28062
1.44662
1.61051
1.78485
1.9836
2.2214
2.48442
2.59969
2.16957
0.438802
0.104763
0.152657
0.201347
0.236977
0.262855
0.283353
0.300633
0.315639
0.328961
0.343023
0.358864
0.378884
0.405822
0.444441
0.502087
0.586263
0.700991
0.842634
1.0004
1.16584
1.33292
1.5
1.6632
1.83925
2.04319
2.29513
2.57793
2.70648
2.2612
0.447987
0.104159
0.150332
0.198488
0.234441
0.260758
0.281556
0.299032
0.314464
0.328527
0.343557
0.36111
0.383868
0.41505
0.460359
0.528003
0.624662
0.751661
0.901868
1.0624
1.22817
1.39388
1.56177
1.72558
1.90336
2.11152
2.37619
2.67436
2.81096
2.34693
0.455917
0.103666
0.148224
0.195848
0.232007
0.258845
0.280024
0.297801
0.313719
0.328779
0.345111
0.364787
0.390958
0.427836
0.48214
0.562308
0.673446
0.813205
0.970415
1.13367
1.29945
1.46412
1.63074
1.79827
1.97809
2.19061
2.46611
2.77559
2.9148
2.42938
0.46432
0.103277
0.14632
0.193434
0.229809
0.257205
0.278807
0.297009
0.313475
0.329948
0.348258
0.370503
0.4011
0.445865
0.512089
0.607419
0.734337
0.886021
1.04964
1.21606
1.38134
1.54429
1.7094
1.88215
2.06448
2.2817
2.56563
2.88158
3.01909
2.51216
0.473144
0.102969
0.144512
0.191104
0.227837
0.255847
0.277991
0.296441
0.31357
0.332025
0.352667
0.378717
0.41557
0.471077
0.552717
0.665904
0.808549
0.971005
1.1404
1.30942
1.47396
1.63456
1.79928
1.97683
2.16349
2.38344
2.67093
2.98804
3.12287
2.59632
0.481786
0.102754
0.14286
0.188927
0.225899
0.254167
0.27714
0.296181
0.314487
0.334693
0.358476
0.390455
0.436234
0.506101
0.606636
0.739665
0.897715
1.06883
1.24293
1.4129
1.5769
1.73519
1.89928
2.08009
2.27092
2.49324
2.77994
3.0947
3.22331
2.67778
0.489416
0.102675
0.141538
0.186944
0.223942
0.25244
0.27603
0.296514
0.316408
0.338613
0.366917
0.40712
0.465612
0.554058
0.676282
0.829285
1.00156
1.17985
1.35701
1.52721
1.68967
1.84507
2.00617
2.18818
2.38629
2.61192
2.89567
3.20029
3.31652
2.74932
0.495453
0.102739
0.14057
0.18528
0.2223
0.251001
0.275191
0.297048
0.319182
0.34501
0.379644
0.430065
0.506808
0.617904
0.764059
0.935434
1.11955
1.30447
1.4832
1.65333
1.81369
1.96559
2.12184
2.30255
2.51015
2.73772
3.01502
3.30363
3.39884
2.81047
0.500912
0.102837
0.140033
0.184185
0.2213
0.250373
0.275162
0.298534
0.323429
0.354374
0.397672
0.463308
0.562709
0.700037
0.870267
1.05868
1.2524
1.44145
1.62059
1.79014
1.94861
2.09732
2.24874
2.42663
2.63807
2.86804
3.13554
3.40086
3.47021
2.8599
0.505377
0.103012
0.139931
0.183829
0.220993
0.250659
0.2763
0.301388
0.329618
0.36743
0.422991
0.508772
0.635002
0.800186
0.992963
1.19624
1.39736
1.58931
1.76822
1.93701
2.0933
2.23922
2.38661
2.56085
2.77128
3.00063
3.25254
3.48693
3.52725
2.89096
0.511236
0.103236
0.139806
0.183774
0.221049
0.251364
0.278118
0.305331
0.338329
0.385498
0.457759
0.568499
0.724233
0.916526
1.12924
1.3451
1.55259
1.74699
1.92573
2.09285
2.24637
2.38985
2.53439
2.70448
2.91123
3.13357
3.35948
3.55814
3.5624
2.90926
0.513003
0.103477
0.139224
0.183392
0.220841
0.251674
0.279952
0.310342
0.350442
0.410611
0.504824
0.644216
0.82982
1.04685
1.27711
1.50472
1.719
1.91536
2.09358
2.25786
2.40852
2.54941
2.69115
2.85614
3.0563
3.26327
3.45159
3.60496
3.56517
2.90184
0.517011
0.103617
0.138189
0.182469
0.220267
0.252094
0.282457
0.317404
0.367444
0.445401
0.566824
0.737337
0.951258
1.19026
1.43628
1.67593
1.89727
2.09547
2.2727
2.434
2.5818
2.71933
2.85789
3.01603
3.20481
3.38723
3.52747
3.6212
3.52812
2.87307
0.518567
0.103737
0.136949
0.181466
0.220174
0.253485
0.286662
0.328024
0.391255
0.492433
0.645268
0.847601
1.08677
1.34411
1.60302
1.85264
2.08118
2.28407
2.46224
2.62235
2.7662
2.9008
3.03528
3.18426
3.35479
3.50122
3.58065
3.59006
3.43423
2.7979
0.522087
0.103896
0.136131
0.180618
0.220544
0.255617
0.292641
0.342969
0.423805
0.55304
0.739384
0.97225
1.233
1.50372
1.77085
2.02496
2.25994
2.47162
2.65665
2.81949
2.96011
3.09117
3.22101
3.35859
3.50378
3.60279
3.60343
3.48959
3.23649
2.62353
0.520788
0.104083
0.135904
0.180464
0.221184
0.258034
0.300345
0.36281
0.465931
0.626954
0.846615
1.10713
1.38676
1.66906
1.94225
2.19786
2.43594
2.65427
2.84867
3.01838
3.1589
3.28869
3.41315
3.53563
3.64663
3.68369
3.57796
3.27418
2.79129
2.10008
0.507999
0.292632
0.2884
0.286081
0.286435
0.290847
0.299935
0.312662
0.329152
0.348634
0.370745
0.394738
0.420028
0.445858
0.471654
0.49693
0.521187
0.54409
0.565451
0.585177
0.60329
0.619714
0.634522
0.647882
0.660245
0.671598
0.681884
0.69109
0.699249
0.706462
0.712855
0.718561
0.723542
0.72792
0.731647
0.734726
0.73716
0.738949
0.740098
0.740622
0.740404
0.739379
0.737666
0.735114
0.731684
0.727348
0.722049
0.715736
0.708459
0.700123
0.690853
0.68057
0.669336
0.657143
0.643995
0.629938
0.615171
0.599759
0.58378
0.56733
0.550495
0.533353
0.515967
0.498421
0.480804
0.463161
0.445503
0.427823
0.410117
0.392393
0.374681
0.357026
0.339485
0.322124
0.305002
0.288176
0.271687
0.25558
0.239903
0.224712
0.210078
0.196083
0.182817
0.170378
0.158848
0.148317
0.13886
0.130531
0.123354
0.117301
0.112309
0.108286
0.105116
0.102683
0.100866
0.0995502
0.0986154
0.0979742
0.0975663
0.097334
0.0972583
0.097288
0.0973936
0.0975389
0.0977415
0.0979834
0.0982674
0.0986135
0.0990418
0.0995048
0.0999814
0.100443
0.100833
0.101217
0.101657
0.102251
0.102762
0.103229
0.103348
0.103414
0.103508
0.103695
0.104019
0.104255
0.104305
0.104296
2.67845
2.75394
2.86536
2.9975
3.16024
3.35801
3.58483
3.83584
4.10339
4.38031
4.6587
4.93159
5.19305
5.43867
5.66566
5.8721
6.05722
6.22132
6.36565
6.49206
6.60042
6.69467
6.77718
6.84742
6.90754
6.9589
7.00252
7.03965
7.07154
7.09897
7.12274
7.14261
7.15708
7.16746
7.17396
7.17648
7.17471
7.16821
7.15628
7.13964
7.11789
7.09009
7.05707
7.01843
6.97379
6.92257
6.86397
6.79887
6.72587
6.64191
6.54612
6.43752
6.3175
6.18697
6.04667
5.90085
5.74844
5.59035
5.42819
5.26338
5.09672
4.92791
4.75691
4.58461
4.41149
4.23768
4.06346
3.88941
3.71634
3.54545
3.37776
3.21355
3.05308
2.89636
2.74295
2.59226
2.44361
2.29612
2.149
2.00169
1.85418
1.70704
1.5614
1.41856
1.27999
1.14727
1.02173
0.90485
0.797607
0.700733
0.614427
0.538575
0.472786
0.416458
0.368801
0.328669
0.295052
0.26712
0.244032
0.224958
0.209083
0.195848
0.184807
0.175739
0.168286
0.161965
0.156661
0.152409
0.14913
0.146652
0.144914
0.143459
0.141583
0.140154
0.139256
0.138664
0.138012
0.136775
0.13567
0.134935
0.134694
0.135091
0.135475
0.13576
0.135892
5.06212
5.1635
5.30922
5.49235
5.71792
5.9899
6.306
6.66156
7.04838
7.45678
7.87569
8.29385
8.70106
9.08953
9.45303
9.78673
10.0883
10.3573
10.5946
10.802
10.9801
11.1353
11.2697
11.3842
11.479
11.5573
11.621
11.6721
11.7123
11.7425
11.7635
11.7759
11.7797
11.7764
11.7661
11.7489
11.7248
11.6934
11.6546
11.6082
11.5535
11.4897
11.4172
11.3356
11.2445
11.1433
11.0316
10.9093
10.7766
10.6326
10.4768
10.309
10.1298
9.94036
9.74032
9.52853
9.30683
9.07677
8.8399
8.59691
8.35017
8.09996
7.84624
7.58989
7.3311
7.0705
6.80798
6.54376
6.27838
6.01269
5.74772
5.48419
5.22279
4.96403
4.70832
4.4561
4.20786
3.96391
3.72467
3.49069
3.2627
3.04148
2.82791
2.62265
2.42596
2.23828
2.05944
1.88959
1.7283
1.57546
1.43092
1.29476
1.16711
1.04828
0.93852
0.838131
0.747282
0.666012
0.593986
0.531
0.476263
0.429242
0.389147
0.355174
0.326592
0.302284
0.281743
0.264514
0.250648
0.239841
0.231514
0.224134
0.21671
0.210647
0.206161
0.202394
0.198316
0.194066
0.190554
0.187799
0.185704
0.184442
0.183283
0.182177
0.181139
7.14727
7.26313
7.43774
7.65981
7.93105
8.25339
8.62302
9.03297
9.47378
9.93461
10.4038
10.87
11.3231
11.7545
12.1574
12.5282
12.8647
13.1657
13.432
13.6653
13.868
14.0435
14.1932
14.3185
14.4211
14.5041
14.5693
14.6185
14.6536
14.6761
14.6872
14.688
14.6796
14.6625
14.6371
14.6032
14.5609
14.5099
14.4501
14.3813
14.303
14.2151
14.1177
14.0107
13.8939
13.7672
13.6305
13.4835
13.3268
13.1602
12.9836
12.7967
12.5996
12.3948
12.1818
11.9602
11.7303
11.4926
11.2488
10.9983
10.7397
10.4729
10.1987
9.91788
9.6295
9.33746
9.04142
8.74081
8.43566
8.12748
7.81671
7.50415
7.19064
6.87697
6.56365
6.25211
5.94348
5.6388
5.33905
5.04506
4.75772
4.47826
4.20744
3.94597
3.69427
3.45274
3.22165
3.00087
2.7902
2.58934
2.39815
2.21639
2.04374
1.88011
1.72516
1.57886
1.44089
1.31117
1.18934
1.07593
0.970756
0.874097
0.786805
0.708409
0.639102
0.57757
0.523766
0.47665
0.436855
0.404749
0.378679
0.354798
0.331761
0.312247
0.29676
0.283658
0.271051
0.259583
0.250343
0.242815
0.236694
0.231814
0.228115
0.225074
0.222711
9.10839